      96
 i =        0, time =        0.000, E =      -550.5186212592
  O         2.2803980000        9.1465390000        5.0886960000
  O         1.2517030000        2.4062610000        7.7699080000
  O         1.5963020000        6.9201280000        0.6566950000
  O         2.9575180000        3.7718680000        1.8773870000
  O         0.2289720000        5.8840260000        6.5323080000
  O         9.0234310000        6.1196540000        0.0924510000
  O         7.2562890000        8.4936410000        5.7720410000
  O         5.0904220000        9.4670160000        0.7431770000
  O         6.3308880000        7.3634710000        3.7477500000
  O         7.7638190000        8.3493670000        9.2794570000
  O         8.2807980000        3.8371530000        5.7992820000
  O         8.8782500000        2.0257970000        1.6641020000
  O         9.1603720000        0.2851000000        6.8710040000
  O         4.9620430000        4.1344370000        0.1733760000
  O         2.8028960000        8.6903830000        2.4359520000
  O         9.1232230000        3.5492320000        8.8767210000
  O         1.4537020000        1.4025380000        2.3582780000
  O         6.5365500000        1.1467900000        7.6097320000
  O         2.7667090000        0.8815030000        9.5442630000
  O         0.8564260000        2.0759640000        5.0106250000
  O         6.3860360000        1.9189500000        0.2426900000
  O         2.7330230000        4.4527560000        5.8502030000
  O         4.6000390000        9.2543140000        6.5759440000
  O         3.6653730000        6.2105610000        3.1584200000
  O         3.3716480000        6.9255940000        7.4760360000
  O         5.2879200000        3.2706530000        6.1550800000
  O         5.2252370000        6.9595940000        9.5829910000
  O         0.8462930000        5.5958770000        3.8206300000
  O         9.7856200000        8.1646170000        3.6578790000
  O         8.5099820000        4.4303620000        2.6799460000
  O         1.3376250000        8.5809200000        8.2724840000
  O         8.0544370000        9.2213350000        1.9913760000
  H         1.7620190000        9.8204290000        5.5284540000
  H         3.0959870000        9.1070880000        5.5881860000
  H         0.5541290000        2.9826340000        8.0820240000
  H         1.7712570000        2.9547790000        7.1821810000
  H         2.1121480000        6.1263210000        0.7981360000
  H         1.7763890000        7.4632640000        1.4240300000
  H         3.7542490000        3.8240170000        1.3494360000
  H         3.0105800000        4.5241420000        2.4668780000
  H         0.9394750000        5.2438340000        6.5719450000
  H         0.5157230000        6.5205480000        5.8774450000
  H         9.8529600000        6.4903660000        0.3935930000
  H         8.5560080000        6.8600630000       -0.2942560000
  H         7.8866070000        7.9413210000        6.2345060000
  H         7.7938550000        9.1410280000        5.3158130000
  H         4.4673660000        9.9711620000        0.2198510000
  H         5.7586850000       10.1027950000        0.9989940000
  H         6.6526930000        7.9174430000        3.0365620000
  H         6.7119660000        7.7435940000        4.5392790000
  H         7.7519550000        8.7451800000       10.1509050000
  H         7.8292080000        9.0922120000        8.6793430000
  H         8.3125400000        3.2183300000        6.5288580000
  H         8.5088550000        4.6806990000        6.1899900000
  H         9.7422490000        1.7049750000        1.9225810000
  H         8.7990600000        2.8764120000        2.0958610000
  H         9.5053600000        1.1616770000        6.7012130000
  H         9.9201170000       -0.2197940000        7.1610060000
  H         4.7499030000        4.1860030000       -0.7585950000
  H         5.2480100000        5.0184150000        0.4036760000
  H         3.5760650000        9.0784510000        2.0262640000
  H         2.7202380000        9.1469740000        3.2731640000
  H         9.0855610000        4.4930580000        9.0316600000
  H         9.2153910000        3.1663050000        9.7491330000
  H         1.9997050000        2.0604110000        1.9277960000
  H         1.8241840000        0.5645650000        2.0811950000
  H         7.4303340000        0.8497640000        7.4389780000
  H         6.5760290000        1.5370170000        8.4828850000
  H         2.4158510000        1.5764600000        8.9873380000
  H         2.2769570000        0.0995370000        9.2894990000
  H         1.1609870000        1.8180230000        4.1406020000
  H         0.3502560000        2.8744370000        4.8607410000
  H         5.7688040000        2.6384500000        0.3752640000
  H         7.2218230000        2.2575140000        0.5637300000
  H         3.2607970000        5.2433900000        5.9623820000
  H         3.3478480000        3.7322140000        5.9881960000
  H         5.3286880000        9.0730590000        5.9822690000
  H         5.0070630000        9.6721500000        7.3348750000
  H         4.5668500000        6.4133560000        3.4083120000
  H         3.2731150000        7.0616660000        2.9635210000
  H         3.8783720000        7.4350030000        6.8436070000
  H         3.8846730000        6.9663160000        8.2831170000
  H         5.9182400000        3.1168020000        5.4513350000
  H         5.3559240000        2.4950930000        6.7119580000
  H         5.0718580000        7.6872540000       10.1856670000
  H         6.1063940000        7.1123020000        9.2417070000
  H         1.6373630000        5.1849100000        4.1692640000
  H         0.4276450000        4.9089360000        3.3019030000
  H         9.9716980000        7.2270760000        3.7091040000
  H        10.6479010000        8.5792440000        3.6298060000
  H         8.0468080000        5.1263830000        2.2138380000
  H         7.9953170000        4.2900740000        3.4747230000
  H         1.8726010000        7.8646720000        7.9304010000
  H         0.8376350000        8.1868080000        8.9872680000
  H         8.3146960000       10.1155340000        2.2125190000
  H         8.6871340000        8.6672520000        2.4484520000
      96
 i =        1, time =        0.500, E =      -550.5159916180
  O         2.2835562788        9.1444381813        5.0877019982
  O         1.2529839303        2.4051790447        7.7686049738
  O         1.5954794052        6.9186468849        0.6542854147
  O         2.9615462576        3.7686726981        1.8785489281
  O         0.2327262596        5.8824118035        6.5326363850
  O         9.0246918866        6.1179323786        0.0949663754
  O         7.2562657490        8.4921047204        5.7735024202
  O         5.0873464398        9.4643826980        0.7413878503
  O         6.3284641786        7.3651964873        3.7454115225
  O         7.7634486542        8.3533045582        9.2777267405
  O         8.2799457169        3.8403805825        5.7974814757
  O         8.8796642224        2.0249597506        1.6662491854
  O         9.1603033983        0.2857379020        6.8682230362
  O         4.9606259917        4.1337507738        0.1749822217
  O         2.8025849515        8.6938879484        2.4356727204
  O         9.1272650223        3.5502836474        8.8769227704
  O         1.4534895463        1.3994181963        2.3603481967
  O         6.5358270180        1.1475047140        7.6100805309
  O         2.7680583853        0.8814320614        9.5436567092
  O         0.8551265995        2.0776544654        5.0114066789
  O         6.3873026456        1.9184722696        0.2466090385
  O         2.7306009488        4.4526886906        5.8489829302
  O         4.6029836842        9.2542007340        6.5744033860
  O         3.6596467656        6.2097836016        3.1584222872
  O         3.3693705371        6.9270410028        7.4743581813
  O         5.2909142801        3.2726775502        6.1574448956
  O         5.2262794645        6.9562011217        9.5836247382
  O         0.8470389123        5.5959737999        3.8203591848
  O         9.7821129170        8.1641166299        3.6587867121
  O         8.5074476115        4.4302775619        2.6788120852
  O         1.3374156289        8.5835946262        8.2740465377
  O         8.0529315205        9.2224125253        1.9930314975
  H         1.7781192885        9.8308602104        5.5387123477
  H         3.1007206485        9.0996150365        5.5833540520
  H         0.5678540255        2.9897597233        8.0777710793
  H         1.7618564792        2.9464402725        7.1823009713
  H         2.0987911777        6.1319195768        0.7944014173
  H         1.7731064941        7.4790702711        1.4295045086
  H         3.7557974465        3.8216698940        1.3476932092
  H         2.9987976336        4.5251417153        2.4690619128
  H         0.9423788188        5.2439716536        6.5586257705
  H         0.5119398484        6.5123729987        5.8718759141
  H         9.8506599902        6.4869565613        0.3908020435
  H         8.5573762293        6.8564098216       -0.2960242807
  H         7.8739597282        7.9271899726        6.2344343203
  H         7.7929298037        9.1378365659        5.3074253539
  H         4.4709635875        9.9743965704        0.2017423124
  H         5.7639855834       10.1159705552        0.9989808509
  H         6.6406387117        7.9161978772        3.0321500713
  H         6.7181345108        7.7401568262        4.5437298124
  H         7.7569120172        8.7455475415       10.1527780505
  H         7.8387567922        9.0846788502        8.6874532523
  H         8.3168574442        3.2348043251        6.5379605814
  H         8.5104662266        4.6831530516        6.1920795183
  H         9.7321430318        1.7017922128        1.9087220650
  H         8.7918784524        2.8706498436        2.0948761698
  H         9.5167244201        1.1613040303        6.6961873621
  H         9.9364952858       -0.2248161188        7.1728927986
  H         4.7514820282        4.1850502510       -0.7485606055
  H         5.2511617972        5.0166396743        0.4006217085
  H         3.5740530523        9.0846290038        2.0335606846
  H         2.7240585595        9.1385715923        3.2766113976
  H         9.0840920407        4.4968694086        9.0289006434
  H         9.2238594207        3.1586805269        9.7568529164
  H         1.9933781358        2.0697908370        1.9157047921
  H         1.8257124014        0.5561522063        2.0912638861
  H         7.4260682692        0.8552251900        7.4482726075
  H         6.5860467970        1.5437733225        8.4982152052
  H         2.4191035874        1.5797313073        8.9873164265
  H         2.2842860630        0.1003594765        9.2691782528
  H         1.1676940405        1.8251314140        4.1569528394
  H         0.3487752665        2.8679150566        4.8565261399
  H         5.7726629895        2.6256802976        0.3804670034
  H         7.2182255188        2.2691761036        0.5575522030
  H         3.2545502285        5.2395100216        5.9588990668
  H         3.3429506128        3.7159844995        5.9846470174
  H         5.3221668765        9.0606500711        5.9965135289
  H         5.0030328182        9.6736981691        7.3237932224
  H         4.5718013487        6.4112116892        3.3988633558
  H         3.2739810010        7.0799530352        2.9583834144
  H         3.8750154585        7.4432652165        6.8586478801
  H         3.8701584143        6.9695906236        8.2763349534
  H         5.9178876074        3.1024576146        5.4501849741
  H         5.3515676078        2.5032203815        6.7194684639
  H         5.0634138089        7.6856915319       10.1820422512
  H         6.1046311644        7.1169467432        9.2488631720
  H         1.6379789673        5.1974126529        4.1686614952
  H         0.4332681215        4.9017196361        3.3057187742
  H         9.9861762534        7.2339482525        3.7003073918
  H        10.6468447017        8.5844492139        3.6277341207
  H         8.0411931097        5.1271840887        2.2037925155
  H         7.9988248717        4.2910852467        3.4766176299
  H         1.8712731094        7.8632889529        7.9132100301
  H         0.8343426706        8.1914864922        8.9800640292
  H         8.3063282010       10.1191048951        2.2230381967
  H         8.6918543166        8.6678049358        2.4476897497
      96
 i =        2, time =        1.000, E =      -550.5206980997
  O         2.2865592550        9.1422916126        5.0865036961
  O         1.2544557551        2.4037736062        7.7673388906
  O         1.5945011640        6.9173386044        0.6518183917
  O         2.9653159152        3.7652801415        1.8797359659
  O         0.2362410444        5.8808475226        6.5331236619
  O         9.0257460412        6.1158712032        0.0974947841
  O         7.2560524375        8.4905713625        5.7749744968
  O         5.0842375704        9.4615749340        0.7397500528
  O         6.3258020632        7.3666720231        3.7429051195
  O         7.7630532643        8.3569457260        9.2759221219
  O         8.2790364397        3.8435150453        5.7954830241
  O         8.8806947075        2.0240141314        1.6681433029
  O         9.1600778734        0.2862905257        6.8654670245
  O         4.9592018502        4.1328638241        0.1767492881
  O         2.8020740370        8.6972428401        2.4352791112
  O         9.1312799410        3.5511759244        8.8769868764
  O         1.4531534375        1.3963174755        2.3625527016
  O         6.5348599074        1.1482370404        7.6103340480
  O         2.7696380584        0.8813412808        9.5433004907
  O         0.8538477561        2.0792511541        5.0124768849
  O         6.3886270222        1.9176784654        0.2504699299
  O         2.7279112722        4.4525330336        5.8477126337
  O         4.6055683320        9.2539625320        6.5727647880
  O         3.6538172110        6.2088433476        3.1584105974
  O         3.3667508025        6.9282803023        7.4725410595
  O         5.2937314519        3.2748632452        6.1597879128
  O         5.2271392858        6.9524977002        9.5842015849
  O         0.8477187532        5.5962536320        3.8200576793
  O         9.7784212245        8.1638249678        3.6596526065
  O         8.5049928712        4.4301239569        2.6776125797
  O         1.3371486402        8.5865683551        8.2755188151
  O         8.0511744189        9.2234308177        1.9945046951
  H         1.7929634814        9.8428637815        5.5494129399
  H         3.1090930156        9.0923507756        5.5809064882
  H         0.5772599092        2.9996326096        8.0764308530
  H         1.7546400798        2.9399248830        7.1791857770
  H         2.0876102947        6.1336852624        0.7912694836
  H         1.7704311181        7.4959464517        1.4359173910
  H         3.7598408991        3.8196067976        1.3434537600
  H         2.9876256964        4.5286576906        2.4732235576
  H         0.9480224776        5.2419167767        6.5451510173
  H         0.5087125107        6.5056254434        5.8642644719
  H         9.8531691225        6.4846404407        0.3895517753
  H         8.5568137270        6.8557162833       -0.2995276934
  H         7.8630925184        7.9119224040        6.2357635403
  H         7.7942137190        9.1363508627        5.2988824724
  H         4.4720670140        9.9793367368        0.1818381327
  H         5.7704409462       10.1300691390        0.9988056163
  H         6.6296397856        7.9169432641        3.0252094481
  H         6.7255662487        7.7377598673        4.5513722771
  H         7.7621245798        8.7475052292       10.1593308711
  H         7.8486651504        9.0802666356        8.6920861634
  H         8.3208122491        3.2496385278        6.5490387211
  H         8.5138901844        4.6886498237        6.1947814801
  H         9.7286155479        1.6964245338        1.8959070549
  H         8.7838097885        2.8694019888        2.0960865081
  H         9.5300361163        1.1632756336        6.6904247054
  H         9.9540252769       -0.2310036719        7.1862331775
  H         4.7520813567        4.1842777682       -0.7419669698
  H         5.2552267935        5.0189276552        0.3980299265
  H         3.5762888688        9.0920569160        2.0377514125
  H         2.7271902682        9.1314505912        3.2855077496
  H         9.0825481204        4.5050988966        9.0273091872
  H         9.2323967679        3.1497789488        9.7662942407
  H         1.9888796809        2.0817764017        1.9029189146
  H         1.8281720129        0.5452940477        2.1001900766
  H         7.4260260744        0.8589562753        7.4557047661
  H         6.5953789750        1.5515825892        8.5165147469
  H         2.4203588213        1.5856760419        8.9848772249
  H         2.2898123457        0.0981573994        9.2470450867
  H         1.1763015115        1.8305706355        4.1682555147
  H         0.3450946391        2.8643176039        4.8527525281
  H         5.7729505279        2.6173632173        0.3858789707
  H         7.2183927441        2.2811445400        0.5527438493
  H         3.2502050491        5.2384119174        5.9566766312
  H         3.3403207192        3.6986908391        5.9804355151
  H         5.3199103385        9.0473637407        6.0083459736
  H         5.0011711173        9.6777220864        7.3159891176
  H         4.5795496263        6.4097628051        3.3901233766
  H         3.2741789693        7.0998110304        2.9528266978
  H         3.8736859487        7.4546879374        6.8717350994
  H         3.8589083799        6.9728319242        8.2740570582
  H         5.9189157313        3.0882958577        5.4482077659
  H         5.3485616162        2.5083619544        6.7287704749
  H         5.0547976836        7.6877087298       10.1803494326
  H         6.1061526385        7.1231389557        9.2548201613
  H         1.6423623709        5.2089427680        4.1702036873
  H         0.4363614137        4.8932993296        3.3078649584
  H        10.0019155523        7.2358215748        3.6916781649
  H        10.6473893739        8.5906371684        3.6263711613
  H         8.0355522567        5.1295881311        2.1920373758
  H         8.0013689094        4.2917336974        3.4817238438
  H         1.8725372960        7.8595911329        7.8948148965
  H         0.8296138545        8.1944873750        8.9750654720
  H         8.2982300115       10.1261153170        2.2333142005
  H         8.6996346696        8.6659915182        2.4493710403
      96
 i =        3, time =        1.500, E =      -550.5322989961
  O         2.2893996790        9.1401497062        5.0851533441
  O         1.2560808297        2.4020254217        7.7661482305
  O         1.5933425488        6.9163368309        0.6493642240
  O         2.9688358456        3.7617202788        1.8809641431
  O         0.2395326712        5.8793280444        6.5337712091
  O         9.0265715702        6.1134942368        0.1000192075
  O         7.2556650619        8.4890590625        5.7764391762
  O         5.0811249738        9.4587184419        0.7382484277
  O         6.3229251148        7.3679203719        3.7402911061
  O         7.7626248141        8.3602389421        9.2741442764
  O         8.2780846117        3.8465753895        5.7933314455
  O         8.8812826220        2.0229789189        1.6697643567
  O         9.1598280016        0.2867307982        6.8627709296
  O         4.9577904937        4.1318002888        0.1787255724
  O         2.8013712148        8.7004612877        2.4347851905
  O         9.1352777609        3.5519191413        8.8769919295
  O         1.4527561700        1.3932713604        2.3648347979
  O         6.5336468849        1.1490435016        7.6106136313
  O         2.7714084310        0.8812251558        9.5431517057
  O         0.8525768897        2.0807564938        5.0138927850
  O         6.3900463818        1.9165436606        0.2542733108
  O         2.7249894604        4.4522074349        5.8464003258
  O         4.6077133332        9.2535995025        6.5710469606
  O         3.6479144388        6.2078591588        3.1583797070
  O         3.3637578931        6.9293000496        7.4705662883
  O         5.2963951943        3.2771947574        6.1620862409
  O         5.2278155197        6.9485076848        9.5847420009
  O         0.8483103202        5.5967001636        3.8197071170
  O         9.7745993507        8.1637477115        3.6604738604
  O         8.5025828794        4.4299366292        2.6763284004
  O         1.3368862131        8.5897934121        8.2768446481
  O         8.0492124007        9.2243978662        1.9958290088
  H         1.8070514407        9.8556596146        5.5599768783
  H         3.1207194142        9.0852651468        5.5805375124
  H         0.5823647078        3.0120870656        8.0780618493
  H         1.7501855714        2.9356548044        7.1721869142
  H         2.0792465215        6.1307314264        0.7890584798
  H         1.7681582811        7.5126860784        1.4418162176
  H         3.7660523428        3.8179608572        1.3370329639
  H         2.9771763368        4.5340785073        2.4787557637
  H         0.9562658080        5.2377075121        6.5315437610
  H         0.5059343837        6.5003328749        5.8545901242
  H         9.8605301934        6.4834649304        0.3898366770
  H         8.5545845123        6.8576194955       -0.3045400100
  H         7.8540086443        7.8957546974        6.2383345786
  H         7.7974609607        9.1359935744        5.2906389474
  H         4.4714288310        9.9852679779        0.1609020288
  H         5.7767649331       10.1438119483        0.9979640811
  H         6.6197455747        7.9197067345        3.0158678324
  H         6.7338080406        7.7360663899        4.5611525647
  H         7.7676001240        8.7507618550       10.1698514875
  H         7.8590975097        9.0800473446        8.6923936913
  H         8.3243579440        3.2628727557        6.5617774168
  H         8.5189936854        4.6967823497        6.1976944949
  H         9.7324589235        1.6886721327        1.8844302923
  H         8.7750171829        2.8726131187        2.0995472009
  H         9.5449348791        1.1668880255        6.6840626288
  H         9.9709553794       -0.2372815330        7.2003480183
  H         4.7515201580        4.1836783090       -0.7395329119
  H         5.2600675473        5.0249048236        0.3958430262
  H         3.5826241404        9.1006766475        2.0388547104
  H         2.7296344007        9.1254536488        3.2995950443
  H         9.0809877029        4.5168675879        9.0269304645
  H         9.2408468167        3.1403103611        9.7761857115
  H         1.9854319785        2.0950794312        1.8901953157
  H         1.8313950748        0.5327737941        2.1080991780
  H         7.4304131401        0.8608686515        7.4611328679
  H         6.6037684519        1.5596407201        8.5359762735
  H         2.4198788582        1.5938445964        8.9804259188
  H         2.2938792957        0.0934525858        9.2233306355
  H         1.1871900555        1.8340581642        4.1736256242
  H         0.3390345515        2.8638723590        4.8493766708
  H         5.7691321264        2.6139547881        0.3915667527
  H         7.2222816244        2.2933663027        0.5492612449
  H         3.2480258161        5.2401736324        5.9557465825
  H         3.3391540520        3.6816016453        5.9753884547
  H         5.3229518853        9.0328362865        6.0169373165
  H         5.0017434483        9.6845817586        7.3120201089
  H         4.5889831667        6.4087500399        3.3818336194
  H         3.2743899294        7.1196361854        2.9471804233
  H         3.8746045568        7.4695406142        6.8824838567
  H         3.8511702038        6.9759799149        8.2769413307
  H         5.9209159445        3.0744071016        5.4458603518
  H         5.3469216251        2.5106539320        6.7397804875
  H         5.0460849553        7.6928964884       10.1802703577
  H         6.1109247882        7.1308851583        9.2595860648
  H         1.6506259183        5.2194458694        4.1738880768
  H         0.4371632914        4.8840253102        3.3086187095
  H        10.0187703408        7.2327859521        3.6831911526
  H        10.6487813670        8.5976236501        3.6257597328
  H         8.0303292556        5.1328533194        2.1791944088
  H         8.0030503793        4.2921777138        3.4897270718
  H         1.8755686811        7.8545684542        7.8758611556
  H         0.8233288446        8.1955902463        8.9724805832
  H         8.2902570400       10.1358557322        2.2431629071
  H         8.7098786231        8.6623665197        2.4531091590
      96
 i =        4, time =        2.000, E =      -550.5461460002
  O         2.2920952103        9.1380629603        5.0837176440
  O         1.2578173229        2.3999662595        7.7650579897
  O         1.5920030328        6.9157221557        0.6469851585
  O         2.9721322546        3.7580376001        1.8822457290
  O         0.2426434337        5.8778435216        6.5345648648
  O         9.0271701102        6.1108566871        0.1025249467
  O         7.2551390248        8.4875798648        5.7778822829
  O         5.0780202529        9.4559308063        0.7368560371
  O         6.3198700110        7.3689818031        3.7376170817
  O         7.7621586352        8.3631827269        9.2724812005
  O         8.2771102420        3.8495863442        5.7910919878
  O         8.8814281638        2.0218819006        1.6711271491
  O         9.1596724837        0.2870572797        6.8601610491
  O         4.9564113137        4.1306099173        0.1809283821
  O         2.8005113923        8.7035883124        2.4342224316
  O         9.1392666054        3.5525466751        8.8770139481
  O         1.4523607253        1.3903042697        2.3671344643
  O         6.5322247996        1.1499612638        7.6110190303
  O         2.7733122456        0.8810752171        9.5431460758
  O         0.8513052612        2.0821818516        5.0156526325
  O         6.3915867358        1.9150934359        0.2580352485
  O         2.7218853754        4.4516601773        5.8450561940
  O         4.6094020866        9.2531198173        6.5692671127
  O         3.6419860799        6.2069395398        3.1583269619
  O         3.3604103647        6.9301131826        7.4684350705
  O         5.2989335210        3.2796331073        6.1643287020
  O         5.2283294752        6.9442785332        9.5852706813
  O         0.8488153776        5.5972722403        3.8192949895
  O         9.7707153575        8.1638523609        3.6612477094
  O         8.5001717850        4.4297484898        2.6749583010
  O         1.3366758165        8.5932075798        8.2779863321
  O         8.0471081239        9.2253234731        1.9970503600
  H         1.8208831625        9.8684211743        5.5697875665
  H         3.1348317147        9.0783833318        5.5817341331
  H         0.5836955285        3.0265408616        8.0824755251
  H         1.7486204182        2.9336555931        7.1611357695
  H         2.0738873973        6.1228682792        0.7879742786
  H         1.7661486910        7.5282209929        1.4459947787
  H         3.7738026969        3.8168458697        1.3289456886
  H         2.9675829693        4.5406031851        2.4849060986
  H         0.9666370958        5.2316946301        6.5178181726
  H         0.5034120237        6.4962812415        5.8430864310
  H         9.8722067621        6.4832399878        0.3914385327
  H         8.5511631492        6.8614887935       -0.3106634136
  H         7.8465079137        7.8791078436        6.2418385562
  H         7.8023252051        9.1360880903        5.2832324339
  H         4.4698428625        9.9914115009        0.1398121074
  H         5.7818859709       10.1561177879        0.9960374971
  H         6.6108767161        7.9242674146        3.0045994619
  H         6.7423304246        7.7347101673        4.5718774954
  H         7.7733522419        8.7549087900       10.1832540451
  H         7.8701618232        9.0843995501        8.6881319134
  H         8.3274356809        3.2747562070        6.5756213330
  H         8.5255798890        4.7068563073        6.2003119599
  H         9.7434436085        1.6787579313        1.8743132613
  H         8.7657524547        2.8796603809        2.1050234457
  H         9.5609757085        1.1712455169        6.6772860784
  H         9.9858388486       -0.2427873281        7.2146514467
  H         4.7497602385        4.1832259074       -0.7413685108
  H         5.2654054527        5.0338161233        0.3938848267
  H         3.5924007663        9.1101857530        2.0371868275
  H         2.7314715887        9.1201742026        3.3180456401
  H         9.0795031915        4.5309708181        9.0277699199
  H         9.2490480717        3.1309530695        9.7853415096
  H         1.9823218710        2.1084403475        1.8783003069
  H         1.8351409019        0.5195314869        2.1151534885
  H         7.4387942017        0.8610974432        7.4645660086
  H         6.6109780462        1.5672274714        8.5549957724
  H         2.4180360034        1.6035141480        8.9745554774
  H         2.2969995066        0.0870774559        9.1984200331
  H         1.2003827782        1.8356199649        4.1730588908
  H         0.3307093253        2.8663574691        4.8464069727