#     Step Nr.          Time[fs]        Kin.[a.u.]          Temp[K]            Pot.[a.u.]        Cons Qty[a.u.]        UsedTime[s]
         0            0.000000         0.135381356       300.000000000      -550.518621259      -550.383239903         0.000000000
         1            0.500000         0.132440244       293.482607056      -550.515991618      -550.383551374        13.784352794
         2            1.000000         0.137104325       303.818035184      -550.520698100      -550.383593774         1.842268890
         3            1.500000         0.148419213       328.891401891      -550.532298996      -550.383879783         1.633413702
         4            2.000000         0.161869036       358.695704047      -550.546146000      -550.384276964         1.432342866
         5            2.500000         0.171279778       379.549555512      -550.555843573      -550.384563795         1.441670529
         6            3.000000         0.172098928       381.364760461      -550.556675732      -550.384576804         1.428985752
         7            3.500000         0.163632201       362.602812007      -550.547963030      -550.384330829         1.428466311
         8            4.000000         0.149027540       330.239430524      -550.532992693      -550.383965153         1.428251658
         9            4.500000         0.133511226       295.855863010      -550.517134124      -550.383622898         1.217776004
        10            5.000000         0.122158378       270.698378489      -550.505567887      -550.383409508         1.444602327
