#     Step Nr.          Time[fs]        Kin.[a.u.]          Temp[K]            Pot.[a.u.]        Cons Qty[a.u.]        UsedTime[s]
         0            0.000000         0.272187779       300.000000000     -1101.034512925     -1100.762325146         0.000000000
         1            0.500000         0.273714878       301.683139066     -1101.039274243     -1100.765559364        14.158803972
         2            1.000000         0.286764726       316.066423837     -1101.052529161     -1100.765764434         1.305179970
         3            1.500000         0.307401171       338.811506676     -1101.073651823     -1100.766250652         1.289373749
         4            2.000000         0.327777225       361.269590523     -1101.094597649     -1100.766820425         1.142678511
         5            2.500000         0.338777485       373.393861000     -1101.105940928     -1100.767163442         1.105667597
         6            3.000000         0.334806752       369.017397414     -1101.101835631     -1100.767028879         0.938013936
         7            3.500000         0.316971661       349.359912000     -1101.083456749     -1100.766485088         0.832454895
         8            4.000000         0.292296757       322.163718851     -1101.058097632     -1100.765800875         0.800969299
         9            4.500000         0.270146717       297.750381598     -1101.035409155     -1100.765262438         0.793953288
        10            5.000000         0.258331639       284.728036584     -1101.023361434     -1100.765029794         0.966962774
