     192
 i =        0, time =        0.000, E =     -1101.0345129252
  O        12.2353220000        1.3766420000       10.8698800000
  O         6.4453900000        3.7069400000        8.6507940000
  O         0.0859770000        2.1813220000        8.2766630000
  O        12.0525540000        2.6713660000        2.1471990000
  O        12.2500360000        4.1909300000       12.0920140000
  O         7.1874220000        0.9590620000        4.7334690000
  O         8.3464570000        7.2100400000        4.6676440000
  O        12.3615460000       11.5278750000        8.1068870000
  O         3.2999840000        4.4408160000        9.1932750000
  O         2.8558290000        3.7599090000        6.5528150000
  O         1.3924940000        6.3627530000        0.5861720000
  O         1.8586450000        8.6940130000        2.0687380000
  O         3.7702310000       12.0945190000        8.6521830000
  O         6.4325080000        3.6698280000        2.7724180000
  O         1.9987240000        1.8202170000        4.8764400000
  O         8.2485810000        2.4047300000        6.9313030000
  O         5.7538140000        3.3600290000       12.4615340000
  O        11.3222120000        5.6492390000        2.2367980000
  O         4.2773180000        2.1139560000       10.5908080000
  O         5.4050150000        3.3492470000        5.4847020000
  O         6.4932780000       11.8699580000        0.6849120000
  O         3.2752500000        2.3465760000        2.4252410000
  O         7.9810030000        6.3525120000        7.5079700000
  O         5.9859900000        6.5128540000       12.1946480000
  O        10.6367140000       11.8568720000       12.2095400000
  O         9.3122830000        3.6703840000        3.5085940000
  O         1.1068850000        5.8303010000        6.6386950000
  O         8.0080070000        3.3263630000       10.8698180000
  O        12.4030000000        9.6874050000       11.7619010000
  O         4.2197820000        7.0853150000        8.1534700000
  O         3.7815570000        8.2038210000       11.5632720000
  O        11.0888980000        4.5320810000        7.8094750000
  O        10.3875480000        8.4088900000        1.0178820000
  O         1.9790160000        6.4180910000       10.3741590000
  O         4.6605470000        0.5496660000        5.6174030000
  O         8.7458800000       12.2562570000        8.0893830000
  O         2.6620410000       10.4898900000        0.0929800000
  O         7.2416610000       10.4718150000        4.2269460000
  O         2.2768270000        0.2766470000       10.8104170000
  O         8.8877330000        0.9468770000        1.3338850000
  O         1.9435540000        8.0885520000        7.5676500000
  O         9.6679420000        8.0567590000        9.8688470000
  O        10.9054910000        8.3396380000        6.4847820000
  O         3.5077330000        4.8624020000        1.5574390000
  O         8.0104570000        8.6428460000       12.0559690000
  O         8.3744460000       10.0359320000        6.6903090000
  O         5.6352470000        6.0768750000        5.5639930000
  O        11.7284340000        1.6019060000        5.0794750000
  O         9.7711340000        9.8141140000        3.5487030000
  O         3.9443550000       10.5634500000        4.6875360000
  O         0.8903570000        6.3822870000        4.0658060000
  O         6.8624470000        6.4251820000        2.4882020000
  O         3.8139630000        6.5951220000        3.7626490000
  O         6.5624480000        8.2954630000        8.8071820000
  O         9.8094550000        0.1433250000        3.8865530000
  O         4.1170740000       11.6612250000        2.2216790000
  O         5.2953170000        8.7355610000        2.7631830000
  O         9.9719990000        5.3793390000        5.3403780000
  O        12.2547080000        8.6438740000        3.9571160000
  O         2.3442740000       10.7612740000        6.8291620000
  O         7.0134160000        0.6434880000       10.5187970000
  O         5.1523490000       10.2336240000       10.3593880000
  O        11.1842780000        5.8840640000       10.2982790000
  O        12.2523350000        8.9741420000        9.0708310000
  H        12.4151390000        2.2331250000       11.2576110000
  H        11.9224760000        1.5737990000        9.9869940000
  H         5.6081920000        3.3715430000        8.9714820000
  H         6.7312260000        3.0608510000        8.0049620000
  H        -0.1692050000        1.5655940000        7.5896450000
  H        -0.4554400000        2.9547710000        8.1189390000
  H        12.1251680000        2.8264630000        1.2054430000
  H        12.8888280000        2.9697610000        2.5047450000
  H        11.5532550000        4.3866130000       11.4655660000
  H        12.8182810000        4.9608080000       12.0671510000
  H         7.0494950000        1.7723440000        4.2478980000
  H         6.3530190000        0.7981450000        5.1740470000
  H         7.7818500000        7.3848520000        5.4205660000
  H         9.1032030000        6.7540170000        5.0358980000
  H        12.7712320000       11.7886450000        8.9317440000
  H        12.0180350000       10.6506520000        8.2763340000
  H         3.5572450000        3.7925290000        9.8488460000
  H         2.5438440000        4.8841020000        9.5779580000
  H         2.3202350000        4.5212500000        6.3298130000
  H         2.8721280000        3.7499630000        7.5098240000
  H         1.2096850000        7.1213910000        1.1405010000
  H         2.2388850000        6.0388010000        0.8942450000
  H         2.7631090000        8.8563530000        2.3367350000
  H         1.3293790000        9.0473690000        2.7837550000
  H         4.3156390000       11.5333880000        9.2034490000
  H         3.0987420000       12.4330430000        9.2444120000
  H         5.9873690000        3.4489740000        3.5905300000
  H         5.8130960000        3.4193440000        2.0869850000
  H         1.0571260000        1.6753440000        4.9693790000
  H         2.2484960000        2.2921190000        5.6708920000
  H         8.5082640000        1.6533370000        7.4644110000
  H         8.0660150000        2.0345970000        6.0676460000
  H         5.1978350000        2.9155420000       11.8215720000
  H         6.6309000000        3.3299810000       12.0793710000
  H        10.7889860000        6.4366720000        2.1279330000
  H        11.6579230000        5.4636020000        1.3598320000
  H         3.5444760000        1.6349580000       10.9777650000
  H         4.7557700000        1.4550540000       10.0876550000
  H         4.4653710000        3.3754590000        5.6652940000
  H         5.6826630000        4.2644300000        5.5244980000
  H         6.1748150000       11.7786760000        1.5829540000
  H         5.7136400000       12.0899240000        0.1749990000
  H         3.4760760000        1.4987080000        2.0289830000
  H         2.7302290000        2.1342950000        3.1829490000
  H         7.1196240000        5.9364500000        7.4740300000
  H         8.5364920000        5.7994050000        6.9586650000
  H         5.9094990000        5.7174770000       11.6676210000
  H         6.1254020000        6.1967580000       13.0873300000
  H        11.2034990000       12.5135360000       11.8048440000
  H        10.2609300000       12.3001530000       12.9701450000
  H         9.9850360000        3.9276850000        2.8781720000
  H         8.5455840000        3.4683290000        2.9723310000
  H         1.3998820000        6.6200920000        7.0932460000
  H         0.9635610000        6.1125230000        5.7353450000
  H         8.0673630000        3.6740020000        9.9799550000
  H         8.0007370000        2.3759590000       10.7561900000
  H        11.8216290000       10.4025100000       12.0204820000
  H        12.2068540000        8.9832420000       12.3798920000
  H         3.4614730000        7.6064850000        7.8896880000
  H         3.8444780000        6.3047110000        8.5609460000
  H         3.1798840000        7.5856140000       11.1484940000
  H         4.4019570000        7.6520300000       12.0395730000
  H        11.5737770000        5.0532110000        7.1695150000
  H        10.3420760000        4.1860830000        7.3208310000
  H        10.0656400000        8.9191940000        1.7609810000
  H         9.6295850000        8.3224990000        0.4397290000
  H         1.3963020000        6.5460790000        9.6256300000
  H         1.4055160000        6.4797590000       11.1380490000
  H         4.0240080000        1.2325180000        5.4058280000
  H         4.7368580000        0.5798810000        6.5710770000
  H         9.4522930000       12.3133810000        8.7327720000
  H         8.9765590000       11.5027880000        7.5459650000
  H         1.8347010000       10.0123110000        0.1534620000
  H         3.2951970000        9.8364030000       -0.2041750000
  H         7.0567240000       11.4017020000        4.0952640000
  H         6.4990380000       10.0202870000        3.8258650000
  H         1.3655410000        0.4873380000       11.0138870000
  H         2.5015910000       -0.4281310000       11.4178710000
  H         8.6442790000        1.8123620000        1.0054090000
  H         8.1426740000        0.3880300000        1.1129550000
  H         1.2726590000        8.3650630000        8.1918880000
  H         2.1424850000        8.8777680000        7.0638670000
  H         8.9614930000        7.8261920000        9.2655230000
  H         9.2271020000        8.4876540000       10.6011180000
  H        10.1501440000        7.7589340000        6.3927680000
  H        10.5960820000        9.1879880000        6.1672900000
  H         3.4631060000        4.0961880000        2.1294140000
  H         3.9194610000        4.5398010000        0.7557910000
  H         7.4189980000        9.3949590000       12.0288760000
  H         7.4304130000        7.8830950000       12.1065460000
  H         7.9729050000       10.2203340000        5.8411960000
  H         7.6751110000        9.6314980000        7.2037250000
  H         5.3324460000        6.3813360000        6.4194730000
  H         5.0000250000        6.4341860000        4.9434660000
  H        11.5750780000        2.2711670000        4.4125400000
  H        11.2198020000        0.8470300000        4.7833570000
  H         8.8653420000        9.7215160000        3.8439980000
  H        10.0007320000       10.7192850000        3.7588980000
  H         3.1861960000       10.4763970000        5.2653330000
  H         4.4073310000       11.3351280000        5.0137230000
  H         0.5581870000        7.2559360000        3.8593310000
  H         0.3416720000        5.7893830000        3.5523460000
  H         7.4599330000        6.5260490000        3.2291930000
  H         6.6962280000        5.4837390000        2.4403720000
  H         3.8648720000        6.3130070000        2.8493850000
  H         2.8764190000        6.6212010000        3.9538620000
  H         5.6315290000        8.0791450000        8.7539970000
  H         7.0032960000        7.5682450000        8.3678220000
  H         9.6154130000        0.5279020000        3.0317550000
  H         8.9629850000        0.1093660000        4.3321620000
  H         3.8258540000       11.1391820000        1.4740870000
  H         4.0639880000       11.0632320000        2.9672110000
  H         5.7843910000        7.9145580000        2.7084860000
  H         4.7804610000        8.6551670000        3.5661100000
  H        10.8806590000        5.4446640000        5.0466070000
  H         9.5933310000        4.6879910000        4.7973500000
  H        11.5623170000        8.9601340000        3.3767650000
  H        11.9260840000        8.8169480000        4.8393200000
  H         2.8568740000       11.2979810000        7.4336600000
  H         1.4923320000       11.1955170000        6.7860330000
  H         7.1458200000        0.0902000000        9.7490090000
  H         7.2272750000        0.0776900000       11.2606650000
  H         4.6620210000        9.5384300000       10.7981550000
  H         5.9945370000        9.8334720000       10.1429850000
  H        10.5442990000        6.5958570000       10.3014450000
  H        11.2817500000        5.6530820000        9.3744940000
  H        12.1030200000        8.8411640000       10.0069160000
  H        11.4915920000        8.5762210000        8.6475570000
     192
 i =        1, time =        0.500, E =     -1101.0392742429
  O        12.2384005168        1.3746357004       10.8693536505
  O         6.4464759249        3.7062252923        8.6497775512
  O         0.0851747748        2.1799374996        8.2746642414
  O        12.0564902521        2.6684147740        2.1486606439
  O        12.2537637280        4.1893095575       12.0925819646
  O         7.1888058605        0.9576036104        4.7361530569
  O         8.3463653034        7.2087768821        4.6692043446
  O        12.3584290254       11.5256703647        8.1051810898
  O         3.2976481976        4.4428068236        9.1911974156
  O         2.8554573593        3.7639237422        6.5513182803
  O         1.3914848010        6.3660996991        0.5846187604
  O         1.8600495617        8.6933412657        2.0711244623
  O         3.7702479730       12.0953715936        8.6495181297
  O         6.4311500589        3.6694298869        2.7741776176
  O         1.9985226307        1.8238472140        4.8763376676
  O         8.2524877735        2.4061218078        6.9319042359
  O         5.7535401218        3.3571902808       12.4638906468
  O        11.3214985873        5.6500631969        2.2375998887
  O         4.2784812048        2.1141841789       10.5903286173
  O         5.4037148081        3.3509697735        5.4855372058
  O         6.4945554857       11.8697589306        0.6889900810
  O         3.2729305070        2.3467521624        2.4242405361
  O         7.9839520351        6.3526953144        7.5067937002
  O         5.9802543692        6.5124790014       12.1948543474
  O        10.6345008076       11.8584029744       12.2081334015
  O         9.3152550932        3.6724426577        3.5112452272
  O         1.1078390347        5.8270669737        6.6396711725
  O         8.0086984222        3.3265612958       10.8699249430
  O        12.3996622987        9.6869241987       11.7629708534
  O         4.2173054919        7.0854245163        8.1525828495
  O         3.7813283272        8.2065866730       11.5650824064
  O        11.0874668405        4.5333024453        7.8115573477
  O        10.3917939656        8.4111543493        1.0202490520
  O         1.9797450270        6.4162017125       10.3725326444
  O         4.6644185737        0.5510788234        5.6159254278
  O         8.7432277492       12.2541761427        8.0896774933
  O         2.6585444594       10.4917812476        0.0919661713
  O         7.2407286669       10.4754538380        4.2279906107
  O         2.2769120247        0.2761340755       10.8101582827
  O         8.8847433069        0.9467848910        1.3341270552
  O         1.9439210124        8.0887250648        7.5642647599
  O         9.6669387977        8.0545668001        9.8675646565
  O        10.9044241485        8.3386942308        6.4838753932
  O         3.5081890604        4.8613099785        1.5571260407
  O         8.0071350584        8.6395189120       12.0556790047
  O         8.3739498695       10.0349032577        6.6882545164
  O         5.6365733207        6.0773478635        5.5597558641
  O        11.7294457995        1.6049512583        5.0794494081
  O         9.7680563465        9.8134945842        3.5477705036
  O         3.9456571599       10.5623261927        4.6879306322
  O         0.8915996375        6.3820646346        4.0656938213
  O         6.8646223514        6.4232171284        2.4903040755
  O         3.8150423192        6.5994542116        3.7646558391
  O         6.5626066567        8.2958335007        8.8075693967
  O         9.8063313802        0.1426742476        3.8830367098
  O         4.1153856577       11.6594454698        2.2210889195
  O         5.2977650054        8.7352926470        2.7619233464
  O         9.9756143895        5.3784896952        5.3431417253
  O        12.2551981169        8.6436406885        3.9597622855
  O         2.3448378890       10.7602138334        6.8281632714
  O         7.0123195766        0.6449973114       10.5208844676
  O         5.1532821257       10.2315617190       10.3595056377
  O        11.1839315418        5.8843596465       10.2974796693
  O        12.2544030712        8.9725145909        9.0722189427
  H        12.4078527652        2.2422869337       11.2473186944
  H        11.9234421613        1.5675107731        9.9954734713
  H         5.6011688475        3.3777470087        8.9821861021
  H         6.7422516180        3.0658721237        8.0163718991
  H        -0.1652941214        1.5666846448        7.5901213521
  H        -0.4482088065        2.9592233353        8.0995650991
  H        12.1310942545        2.8349066051        1.2222276049
  H        12.8891888876        2.9625407516        2.5008581694
  H        11.5570193946        4.3732922470       11.4697228735
  H        12.8140382173        4.9735839248       12.0609413506
  H         7.0422501999        1.7685446234        4.2432525534
  H         6.3442985512        0.7832233594        5.1719856550
  H         7.7727959054        7.3729469222        5.4363144647
  H         9.0996524854        6.7533162625        5.0241846265
  H        12.7748188838       11.7864755830        8.9231249163
  H        12.0192974256       10.6655838229        8.2725715831
  H         3.5537203242        3.7980992828        9.8653998639
  H         2.5269291931        4.8884853298        9.5708101722
  H         2.3176730229        4.5087978982        6.3292819753
  H         2.8673415556        3.7597126553        7.5186573388
  H         1.2012366633        7.1197925201        1.1371873714
  H         2.2371514761        6.0416275714        0.9028676099
  H         2.7634662078        8.8692721551        2.3354444767
  H         1.3350583992        9.0413986020        2.7898434199
  H         4.3303111160       11.5408655274        9.1959698655
  H         3.0950192305       12.4384825699        9.2437279116
  H         5.9808161643        3.4487612272        3.5840965988
  H         5.8161447331        3.4201694965        2.0857921615
  H         1.0517560525        1.6749041327        4.9535336172
  H         2.2461674972        2.2992868125        5.6646397251
  H         8.5002236102        1.6535033326        7.4758430360
  H         8.0684571995        2.0358292228        6.0645051934
  H         5.2030306168        2.9183264828       11.8081185358
  H         6.6358375288        3.3360790975       12.0710177908
  H        10.7875418508        6.4430956202        2.1276057195
  H        11.6584931967        5.4553995073        1.3599942057
  H         3.5335699606        1.6268939419       10.9746156505
  H         4.7654259578        1.4477653697       10.0838692619
  H         4.4655689762        3.3671281741        5.6628654166
  H         5.6860661727        4.2637924764        5.5239879148
  H         6.1960000006       11.7861248146        1.5845677980
  H         5.6988958466       12.0944247269        0.1862648859
  H         3.4844748097        1.4808206885        2.0397170787
  H         2.7162246059        2.1421404732        3.1836610848
  H         7.1170800139        5.9357691232        7.4803682535
  H         8.5471330030        5.7949718715        6.9670139651
  H         5.9181322052        5.7057128338       11.6627519663
  H         6.1372688356        6.2078205427       13.0951615610
  H        11.1822223392       12.5095789737       11.8037215680
  H        10.2632069675       12.2991416739       12.9790556084
  H         9.9683195997        3.9372197452        2.8596371369
  H         8.5503976877        3.4668145037        2.9603426269
  H         1.4005546680        6.6137184641        7.0910434828
  H         0.9689616776        6.1200319780        5.7349453433
  H         8.0663163650        3.6802870584        9.9650433586
  H         8.0118000104        2.3671150486       10.7583150012
  H        11.8232422765       10.4000361444       12.0260567166
  H        12.2051180222        8.9744500344       12.3843421228
  H         3.4606264812        7.5997643206        7.8877691122
  H         3.8479445861        6.3179327081        8.5560561602
  H         3.1717469763        7.5869531106       11.1422667976
  H         4.4129413828        7.6473042217       12.0498324011
  H        11.5672591981        5.0425409963        7.1595631851
  H        10.3445625202        4.1832681427        7.3218126802
  H        10.0737791468        8.9085045679        1.7537878485
  H         9.6241336950        8.3134192569        0.4443763980
  H         1.3866616297        6.5583416454        9.6259030974
  H         1.4036575604        6.4770611930       11.1398400904
  H         4.0386547916        1.2419175249        5.3963191866
  H         4.7340176705        0.5881522890        6.5802698211
  H         9.4511357505       12.3153147943        8.7319959828
  H         8.9682075380       11.4967512535        7.5522550155
  H         1.8313000268       10.0169179788        0.1531811349
  H         3.3003222395        9.8474091363       -0.2036391000
  H         7.0556763917       11.4056262387        4.0974461242
  H         6.5107924106       10.0243925984        3.8317367826
  H         1.3682939542        0.4902123590       11.0307358315
  H         2.5001281320       -0.4266233365       11.4153927278
  H         8.6578554156        1.8178521450        1.0053437602
  H         8.1466946490        0.3856015447        1.1034294119
  H         1.2584218979        8.3619213298        8.1879751397
  H         2.1357604161        8.8806059500        7.0599479873
  H         8.9606912832        7.8271146713        9.2674842926
  H         9.2129839592        8.4823287048       10.5967754594
  H        10.1538116720        7.7551519708        6.4005310451
  H        10.5957691071        9.1841065321        6.1657691881
  H         3.4703280663        4.1071907568        2.1134638800
  H         3.9287527876        4.5449984749        0.7564900249
  H         7.4143796650        9.3883053418       12.0269018323
  H         7.4196140571        7.8701304999       12.1023168301
  H         7.9675090218       10.2110493752        5.8531173297
  H         7.6700647292        9.6143099005        7.2155656120
  H         5.3316241808        6.3932324159        6.4145027238
  H         4.9928307130        6.4237238459        4.9414206965
  H        11.5748870473        2.2514429955        4.4091149712
  H        11.2227501333        0.8377452341        4.7838879482
  H         8.8826902676        9.7218255911        3.8512364209
  H         9.9959280584       10.7287530998        3.7679201402
  H         3.1848727130       10.4828726373        5.2601375358
  H         4.3990292093       11.3446630048        5.0188089935
  H         0.5463124861        7.2567913569        3.8503401762
  H         0.3306514421        5.7799205187        3.5394499643
  H         7.4706295011        6.5267242474        3.2305610497
  H         6.6966780610        5.4808271231        2.4423220666
  H         3.8612041506        6.3135951949        2.8384945914
  H         2.8652730585        6.6153135905        3.9541099850
  H         5.6327205802        8.0742515830        8.7447052009
  H         6.9920501506        7.5679550583        8.3771270339
  H         9.6107769127        0.5512706889        3.0289764717
  H         8.9597905290        0.1061392734        4.3410041939
  H         3.8356024493       11.1457120152        1.4643130122
  H         4.0551437137       11.0494775034        2.9681778800
  H         5.8017600495        7.9150570874        2.7188564400
  H         4.7803592621        8.6636684950        3.5676922595
  H        10.8756474653        5.4517811113        5.0378014214
  H         9.5879848738        4.6927813482        4.7977343270
  H        11.5548125591        8.9666044572        3.3706346854
  H        11.9348314236        8.8167763874        4.8383019856
  H         2.8610210033       11.3000672378        7.4327020007
  H         1.4774566591       11.1901368323        6.7827410033
  H         7.1496957150        0.0931870708        9.7436656642
  H         7.2200592634        0.0868613861       11.2648242101
  H         4.6920369310        9.5289086836       10.7971635524
  H         6.0068309891        9.8272093531       10.1528988672
  H        10.5524373876        6.6025980303       10.3042463528
  H        11.2794371782        5.6543659171        9.3819434212
  H        12.1135602310        8.8528736088        9.9990590063
  H        11.4875712201        8.5845790591        8.6469444439
     192
 i =        2, time =        1.000, E =     -1101.0525291605
  O        12.2414899049        1.3724183329       10.8691096410
  O         6.4475358778        3.7057063242        8.6489062483
  O         0.0844784598        2.1784732563        8.2728548595
  O        12.0602434834        2.6653541522        2.1503590530
  O        12.2575552753        4.1874356804       12.0933273991
  O         7.1904441290        0.9560225578        4.7388016229
  O         8.3460396093        7.2077652319        4.6706037267
  O        12.3553230471       11.5238038292        8.1032356135
  O         3.2953587764        4.4448012949        9.1889723394
  O         2.8553151331        3.7675954061        6.5497186986
  O         1.3903079440        6.3693190586        0.5828249590
  O         1.8613965380        8.6925744385        2.0733584410
  O         3.7703318642       12.0963459947        8.6465638212
  O         6.4300783749        3.6691121786        2.7758682570
  O         1.9985237297        1.8273545327        4.8759683003
  O         8.2563753358        2.4077510393        6.9326283969
  O         5.7532102686        3.3545093819       12.4665123603
  O        11.3207710724        5.6507954133        2.2386023201
  O         4.2797189873        2.1145970718       10.5898708657
  O         5.4026356428        3.3523925994        5.4862015092
  O         6.4960560099       11.8695886762        0.6928291361
  O         3.2706849297        2.3470253130        2.4231147185
  O         7.9869090250        6.3530446642        7.5057173703
  O         5.9744711616        6.5122449081       12.1949808401
  O        10.6322120709       11.8595975657       12.2067432249
  O         9.3182202595        3.6744509242        3.5139827809
  O         1.1086655068        5.8234682395        6.6407551858
  O         8.0094797005        3.3268209343       10.8701864192
  O        12.3965769534        9.6862764006       11.7639045844
  O         4.2152599196        7.0856017274        8.1516206725
  O         3.7811724058        8.2095123744       11.5669507223
  O        11.0860857311        4.5344730342        7.8138605926
  O        10.3963162289        8.4132075988        1.0224892868
  O         1.9806003202        6.4142979355       10.3707868869
  O         4.6684696738        0.5523675103        5.6144755388
  O         8.7404576314       12.2523392723        8.0901016383
  O         2.6551927517       10.4940478586        0.0909835126
  O         7.2400434245       10.4791077625        4.2292039692
  O         2.2771772131        0.2757898311       10.8097474933
  O         8.8819677601        0.9466961770        1.3345014910
  O         1.9443585725        8.0886935815        7.5608633802
  O         9.6661428997        8.0523258090        9.8662213036
  O        10.9036323389        8.3377261268        6.4830327393
  O         3.5086038903        4.8606784416        1.5566746288
  O         8.0039905279        8.6361495130       12.0553404980
  O         8.3736316574       10.0338149275        6.6864512018
  O         5.6381977987        6.0777009871        5.5556374364
  O        11.7306501399        1.6079467334        5.0796698799
  O         9.7653697889        9.8127499542        3.5467155720
  O         3.9471202057       10.5609831570        4.6880351478
  O         0.8930259569        6.3815659864        4.0656940342
  O         6.8666701489        6.4214350460        2.4921893756
  O         3.8161705995        6.6038603030        3.7667230970
  O         6.5628992060        8.2965008384        8.8080800146
  O         9.8033823194        0.1418815117        3.8796095698
  O         4.1138378448       11.6578992852        2.2204737928
  O         5.3002185059        8.7352745058        2.7606032434
  O         9.9792444460        5.3778153177        5.3462187999
  O        12.2558527719        8.6434489036        3.9621880317
  O         2.3453143649       10.7589221813        6.8269336091
  O         7.0111715787        0.6466908721       10.5229134982
  O         5.1543445425       10.2298164696       10.3595100507
  O        11.1837897817        5.8845225431       10.2969296839
  O        12.2566556506        8.9709195470        9.0733033193
  H        12.4011747289        2.2540865638       11.2385075875
  H        11.9240794063        1.5621739125        9.9982926634
  H         5.5931518299        3.3840969693        8.9933603637
  H         6.7554450293        3.0681937133        8.0237226544
  H        -0.1619913914        1.5654849189        7.5881665887
  H        -0.4424798421        2.9672666029        8.0794522137
  H        12.1370690331        2.8449473849        1.2344780487
  H        12.8923661731        2.9560018874        2.4980831452
  H        11.5578639264        4.3618138852       11.4710926105
  H        12.8114285811        4.9880693605       12.0553611577