 DBCSR| CPU Multiplication driver                                           XSMM
 DBCSR| Multrec recursion limit                                              512
 DBCSR| Multiplication stack size                                           1000
 DBCSR| Maximum elements for images                                    UNLIMITED
 DBCSR| Multiplicative factor virtual images                                   1
 DBCSR| Use multiplication densification                                       T
 DBCSR| Multiplication size stacks                                             3
 DBCSR| Use memory pool for CPU allocation                                     F
 DBCSR| Number of 3D layers                                               SINGLE
 DBCSR| Use MPI memory allocation                                              F
 DBCSR| Use RMA algorithm                                                      F
 DBCSR| Use Communication thread                                               T
 DBCSR| Communication thread load                                             87
 DBCSR| MPI: My node id                                                        0
 DBCSR| MPI: Number of nodes                                                 144
 DBCSR| OMP: Current number of threads                                         1
 DBCSR| OMP: Max number of threads                                             1
 DBCSR| Split modifier for TAS multiplication algorithm                  1.0E+00


  **** **** ******  **  PROGRAM STARTED AT               2023-08-03 13:55:31.832
 ***** ** ***  *** **   PROGRAM STARTED ON                               r1i0n28
 **    ****   ******    PROGRAM STARTED BY                         mrnuff-cirrus
 ***** **    ** ** **   PROGRAM PROCESS ID                               3764145
  **** **  *******  **  PROGRAM STARTED IN /mnt/lustre/indy2lfs/work/tc047/tc047
                                           /mrnuff-cirrus/cp2k/nuff-benchmarks/H
                                           2O-64-8node

 CP2K| version string:                                          CP2K version 9.1
 CP2K| source code revision number:                                  git:d8d7100
 CP2K| cp2kflags: omp fftw3 libxc elpa parallel mpi3 scalapack xsmm plumed2 spgl
 CP2K|            ib mkl
 CP2K| is freely available from                            https://www.cp2k.org/
 CP2K| Program compiled at                           Wed Aug 2 15:51:15 BST 2023
 CP2K| Program compiled on                                         cirrus-login2
 CP2K| Program compiled for                                         Cirrus-intel
 CP2K| Data directory path    /work/tc047/tc047/mrnuff-cirrus/cp2k/cp2k-9.1/data
 CP2K| Input file name        /work/tc047/tc047/mrnuff-cirrus/cp2k/benchmarks/QS
 
 GLOBAL| Force Environment number                                              1
 GLOBAL| Basis set file name                                      GTH_BASIS_SETS
 GLOBAL| Potential file name                                           POTENTIAL
 GLOBAL| MM Potential file name                                     MM_POTENTIAL
 GLOBAL| Coordinate file name                                      __STD_INPUT__
 GLOBAL| Method name                                                        CP2K
 GLOBAL| Project name                                                     H2O-64
 GLOBAL| Run type                                                             MD
 GLOBAL| FFT library                                                       FFTW3
 GLOBAL| Diagonalization library                                            ELPA
 GLOBAL| Minimum number of eigenvectors for ELPA usage                        16
 GLOBAL| Orthonormality check for eigenvectors                          DISABLED
 GLOBAL| Matrix multiplication library                                 ScaLAPACK
 GLOBAL| All-to-all communication in single precision                          F
 GLOBAL| FFTs using library dependent lengths                                  F
 GLOBAL| Grid backend                                                       AUTO
 GLOBAL| Global print level                                                  LOW
 GLOBAL| MPI I/O enabled                                                       T
 GLOBAL| Total number of message passing processes                           144
 GLOBAL| Number of threads for this process                                    1
 GLOBAL| This output is from process                                           0
 GLOBAL| Stack size for threads created by OpenMP (OMP_STACKSIZE)        default
 GLOBAL| CPU model name                Intel(R) Xeon(R) CPU E5-2695 v4 @ 2.10GHz
 GLOBAL| CPUID                                                              1002

 MEMORY| system memory details [Kb]
 MEMORY|                        rank 0           min           max       average
 MEMORY| MemTotal            263585924     263585924     263585924     263585924
 MEMORY| MemFree             256005256     256005224     256242260     256137521
 MEMORY| Buffers                    64            64            64            64
 MEMORY| Cached                 428644        329368        468152        395457
 MEMORY| Slab                  1697616       1544376       1697648       1627669
 MEMORY| SReclaimable           128196        102568        170000        133760
 MEMORY| MemLikelyFree       256562160     256558584     256741664     256666803

 
 GENERATE|  Preliminary Number of Bonds generated:                             0
 GENERATE|  Achieved consistency in connectivity generation.

 *******************************************************************************
 *******************************************************************************
 **                                                                           **
 **     #####                         ##              ##                      **
 **    ##   ##            ##          ##              ##                      **
 **   ##     ##                       ##            ######                    **
 **   ##     ##  ##   ##  ##   #####  ##  ##   ####   ##    #####    #####    **
 **   ##     ##  ##   ##  ##  ##      ## ##   ##      ##   ##   ##  ##   ##   **
 **   ##  ## ##  ##   ##  ##  ##      ####     ###    ##   ######   ######    **
 **    ##  ###   ##   ##  ##  ##      ## ##      ##   ##   ##       ##        **
 **     #######   #####   ##   #####  ##  ##  ####    ##    #####   ##        **
 **           ##                                                    ##        **
 **                                                                           **
 **                                                ... make the atoms dance   **
 **                                                                           **
 **            Copyright (C) by CP2K developers group (2000-2021)             **
 **                      J. Chem. Phys. 152, 194103 (2020)                    **
 **                                                                           **
 *******************************************************************************


 TOTAL NUMBERS AND MAXIMUM NUMBERS

  Total number of            - Atomic kinds:                                   2
                             - Atoms:                                        192
                             - Shell sets:                                   384
                             - Shells:                                      1152
                             - Primitive Cartesian functions:               1344
                             - Cartesian basis functions:                   2688
                             - Spherical basis functions:                   2560

  Maximum angular momentum of- Orbital basis functions:                        2
                             - Local part of the GTH pseudopotential:          2
                             - Non-local part of the GTH pseudopotential:      0


 SCF PARAMETERS         Density guess:                                    ATOMIC
                        --------------------------------------------------------
                        max_scf:                                              50
                        max_scf_history:                                       0
                        max_diis:                                              4
                        --------------------------------------------------------
                        eps_scf:                                        1.00E-05
                        eps_scf_history:                                0.00E+00
                        eps_diis:                                       1.00E-01
                        eps_eigval:                                     1.00E-05
                        --------------------------------------------------------
                        level_shift [a.u.]:                                 0.00
                        --------------------------------------------------------
                        No outer SCF
 
 MD_PAR| Molecular dynamics protocol (MD input parameters)
 MD_PAR| Ensemble type                                                       NVE
 MD_PAR| Number of time steps                                                 10
 MD_PAR| Time step [fs]                                                 0.500000
 MD_PAR| Temperature [K]                                              300.000000
 MD_PAR| Temperature tolerance [K]                                      0.000000
 MD_PAR| Print MD information every                                    1 step(s)
 MD_PAR| File type   Print frequency [steps]                          File names
 MD_PAR| Coordinates          1                                 H2O-64-pos-1.xyz
 MD_PAR| Velocities           1                                 H2O-64-vel-1.xyz
 MD_PAR| Energies             1                                    H2O-64-1.ener
 MD_PAR| Dump                20                                 H2O-64-1.restart

 ROT| Rotational analysis information
 ROT| Principal axes and moments of inertia [a.u.]
 ROT|                           1                   2                   3
 ROT| Eigenvalues      1.74175352612E+08   1.87507692273E+08   1.99545122867E+08
 ROT|      x             -0.734964520432      0.242599134404      0.633224141748
 ROT|      y             -0.044883649946      0.914361711697     -0.402402930096
 ROT|      z             -0.676618512660     -0.324173287254     -0.661134682313
 ROT| Number of rotovibrational vectors                                        6

 DOF| Calculation of degrees of freedom
 DOF| Number of atoms                                                        192
 DOF| Number of intramolecular constraints                                     0
 DOF| Number of intermolecular constraints                                     0
 DOF| Invariants (translations + rotations)                                    3
 DOF| Degrees of freedom                                                     573

 DOF| Restraints information
 DOF| Number of intramolecular restraints                                      0
 DOF| Number of intermolecular restraints                                      0

 MD_VEL| Velocities initialization
 MD_VEL| Initial temperature [K]                                      300.000000
 MD_VEL| COM velocity            -0.0000000000    -0.0000000000    -0.0000000000

 Number of electrons:                                                        512
 Number of occupied orbitals:                                                256
 Number of molecular orbitals:                                               256

 Number of orbital functions:                                               2560
 Number of independent orbital functions:                                   2560

 Extrapolation method: initial_guess


 SCF WAVEFUNCTION OPTIMIZATION

  ----------------------------------- OT ---------------------------------------
  Minimizer      : DIIS                : direct inversion
                                         in the iterative subspace
                                         using   7 DIIS vectors
                                         safer DIIS on
  Preconditioner : FULL_KINETIC        : inversion of T + eS
  Precond_solver : DEFAULT
  stepsize       :    0.15000000                  energy_gap     :    0.20000000
  eps_taylor     :   0.10000E-15                  max_taylor     :             4
  ----------------------------------- OT ---------------------------------------

  Step     Update method      Time    Convergence         Total energy    Change
  ------------------------------------------------------------------------------
     1 OT DIIS     0.15E+00    1.0     0.01337191     -1059.6804821835 -1.06E+03
     2 OT DIIS     0.15E+00    0.2     0.00866338     -1073.3635691562 -1.37E+01
     3 OT DIIS     0.15E+00    0.2     0.00615351     -1082.2282202518 -8.86E+00
     4 OT DIIS     0.15E+00    0.2     0.00431587     -1088.6720385462 -6.44E+00
     5 OT DIIS     0.15E+00    0.2     0.00329037     -1092.3459794117 -3.67E+00
     6 OT DIIS     0.15E+00    0.2     0.00250764     -1095.1407787498 -2.79E+00
     7 OT DIIS     0.15E+00    0.2     0.00187043     -1097.2047928151 -2.06E+00
     8 OT DIIS     0.15E+00    0.2     0.00144439     -1098.4309206548 -1.23E+00
     9 OT DIIS     0.15E+00    0.2     0.00112474     -1099.2105625821 -7.80E-01
    10 OT DIIS     0.15E+00    0.2     0.00101434     -1099.5709297726 -3.60E-01
    11 OT DIIS     0.15E+00    0.2     0.00080489     -1099.8825153791 -3.12E-01
    12 OT DIIS     0.15E+00    0.2     0.00062327     -1100.1514967964 -2.69E-01
    13 OT DIIS     0.15E+00    0.2     0.00050315     -1100.3318149454 -1.80E-01
    14 OT DIIS     0.15E+00    0.2     0.00043024     -1100.4346402598 -1.03E-01
    15 OT DIIS     0.15E+00    0.2     0.00039144     -1100.5120681612 -7.74E-02
    16 OT DIIS     0.15E+00    0.2     0.00037746     -1100.5638357850 -5.18E-02
    17 OT DIIS     0.15E+00    0.2     0.00037007     -1100.5993045683 -3.55E-02
    18 OT SD       0.15E+00    0.2     0.00037235     -1100.6207668884 -2.15E-02
    19 OT SD       0.15E+00    0.2     0.00037194     -1100.6343870245 -1.36E-02
    20 OT DIIS     0.15E+00    0.2     0.00037141     -1100.6479762822 -1.36E-02
    21 OT SD       0.15E+00    0.2     0.00039431     -1100.6695123016 -2.15E-02
    22 OT SD       0.15E+00    0.2     0.00038531     -1100.6845844215 -1.51E-02
    23 OT SD       0.15E+00    0.2     0.00037981     -1100.6990664424 -1.45E-02
    24 OT DIIS     0.15E+00    0.2     0.00037509     -1100.7131556453 -1.41E-02
    25 OT SD       0.15E+00    0.2     0.00041643     -1100.8055841217 -9.24E-02
    26 OT DIIS     0.15E+00    0.2     0.00037319     -1100.8215736770 -1.60E-02
    27 OT DIIS     0.15E+00    0.2     0.00030853     -1100.9143461885 -9.28E-02
    28 OT SD       0.15E+00    0.2     0.00029415     -1100.9861063288 -7.18E-02
    29 OT DIIS     0.15E+00    0.2     0.00021624     -1100.9933398440 -7.23E-03
    30 OT DIIS     0.15E+00    0.2     0.00016695     -1100.9956788006 -2.34E-03
    31 OT DIIS     0.15E+00    0.2     0.00013109     -1101.0097764726 -1.41E-02
    32 OT DIIS     0.15E+00    0.2     0.00012462     -1101.0160274747 -6.25E-03
    33 OT DIIS     0.15E+00    0.2     0.00008932     -1101.0205935289 -4.57E-03
    34 OT DIIS     0.15E+00    0.2     0.00006459     -1101.0254797415 -4.89E-03
    35 OT DIIS     0.15E+00    0.2     0.00004898     -1101.0275302023 -2.05E-03
    36 OT DIIS     0.15E+00    0.2     0.00004029     -1101.0285871270 -1.06E-03
    37 OT DIIS     0.15E+00    0.2     0.00003472     -1101.0293286086 -7.41E-04
    38 OT DIIS     0.15E+00    0.2     0.00003014     -1101.0300326020 -7.04E-04
    39 OT DIIS     0.15E+00    0.2     0.00002728     -1101.0305672255 -5.35E-04
    40 OT DIIS     0.15E+00    0.2     0.00002484     -1101.0310736043 -5.06E-04
    41 OT DIIS     0.15E+00    0.2     0.00002274     -1101.0315331589 -4.60E-04
    42 OT DIIS     0.15E+00    0.2     0.00002077     -1101.0319924423 -4.59E-04
    43 OT DIIS     0.15E+00    0.2     0.00001933     -1101.0323580845 -3.66E-04
    44 OT DIIS     0.15E+00    0.2     0.00001810     -1101.0326866607 -3.29E-04
    45 OT DIIS     0.15E+00    0.2     0.00001700     -1101.0330047886 -3.18E-04
    46 OT DIIS     0.15E+00    0.2     0.00001609     -1101.0332971982 -2.92E-04
    47 OT DIIS     0.15E+00    0.2     0.00001538     -1101.0335379681 -2.41E-04
    48 OT DIIS     0.15E+00    0.2     0.00001455     -1101.0338201561 -2.82E-04
    49 OT DIIS     0.15E+00    0.2     0.00001377     -1101.0340941844 -2.74E-04
    50 OT DIIS     0.15E+00    0.2     0.00001316     -1101.0343206252 -2.26E-04

  Leaving inner SCF loop after reaching    50 steps.


  Electronic density on regular grids:       -512.0000015473       -0.0000015473
  Core density on regular grids:              512.0000000045        0.0000000045
  Total charge density on r-space grids:       -0.0000015428
  Total charge density g-space grids:          -0.0000015428

  Overlap energy of the core charge distribution:               0.00000562599749
  Self energy of the core charge distribution:              -2805.30499493854950
  Core Hamiltonian energy:                                    825.30720960503913
  Hartree energy:                                            1145.24839545441591
  Exchange-correlation energy:                               -266.28493637212341

  Total energy:                                             -1101.03432062522029

 *** WARNING in qs_scf.F:598 :: SCF run NOT converged ***


 ENERGY| Total FORCE_EVAL ( QS ) energy [a.u.]:            -1101.034512925228228

 MD_INI| MD initialization
 MD_INI| Potential energy [hartree]                          -0.110103451293E+04
 MD_INI| Kinetic energy [hartree]                             0.272187778755E+00
 MD_INI| Temperature [K]                                              300.000000
 MD_INI| Cell volume [bohr^3]                                 1.290954213209E+04
 MD_INI| Cell volume [ang^3]                                  1.912996750996E+03
 MD_INI| Cell lengths [bohr]      2.34586823E+01  2.34586823E+01  2.34586823E+01
 MD_INI| Cell lengths [ang]       1.24138000E+01  1.24138000E+01  1.24138000E+01
 MD_INI| Cell angles [deg]        9.00000000E+01  9.00000000E+01  9.00000000E+01

 Number of electrons:                                                        512
 Number of occupied orbitals:                                                256
 Number of molecular orbitals:                                               256

 Number of orbital functions:                                               2560
 Number of independent orbital functions:                                   2560

 Extrapolation method: PS Nth order
 Extrapolation order:  0


 SCF WAVEFUNCTION OPTIMIZATION

  ----------------------------------- OT ---------------------------------------
  Minimizer      : DIIS                : direct inversion
                                         in the iterative subspace
                                         using   7 DIIS vectors
                                         safer DIIS on
  Preconditioner : FULL_KINETIC        : inversion of T + eS
  Precond_solver : DEFAULT
  stepsize       :    0.15000000                  energy_gap     :    0.20000000
  eps_taylor     :   0.10000E-15                  max_taylor     :             4
  ----------------------------------- OT ---------------------------------------

  Step     Update method      Time    Convergence         Total energy    Change
  ------------------------------------------------------------------------------
     1 OT DIIS     0.15E+00    0.2     0.00021936     -1101.0312354154 -1.10E+03
     2 OT DIIS     0.15E+00    0.2     0.00013634     -1101.0349740470 -3.74E-03
     3 OT DIIS     0.15E+00    0.2     0.00007244     -1101.0374409997 -2.47E-03
     4 OT DIIS     0.15E+00    0.2     0.00004844     -1101.0383330370 -8.92E-04
     5 OT DIIS     0.15E+00    0.2     0.00002981     -1101.0389011264 -5.68E-04
     6 OT DIIS     0.15E+00    0.2     0.00001742     -1101.0391554496 -2.54E-04
     7 OT DIIS     0.15E+00    0.2     0.00001014     -1101.0392389591 -8.35E-05
     8 OT DIIS     0.15E+00    0.2     0.00000578     -1101.0392660143 -2.71E-05

  *** SCF run converged in     8 steps ***


  Electronic density on regular grids:       -512.0000014908       -0.0000014908
  Core density on regular grids:              511.9999999975       -0.0000000025
  Total charge density on r-space grids:       -0.0000014934
  Total charge density g-space grids:          -0.0000014934

  Overlap energy of the core charge distribution:               0.00000554125068
  Self energy of the core charge distribution:              -2805.30499493854950
  Core Hamiltonian energy:                                    824.99728006734199
  Hartree energy:                                            1145.47087285334328
  Exchange-correlation energy:                               -266.20242953768053

  Total energy:                                             -1101.03926601429407

 ENERGY| Total FORCE_EVAL ( QS ) energy [a.u.]:            -1101.039274242862348

 MD| ***************************************************************************
 MD| Step number                                                               1
 MD| Time [fs]                                                          0.500000
 MD| Conserved quantity [hartree]                            -0.110076555936E+04
 MD| ---------------------------------------------------------------------------
 MD|                                          Instantaneous             Averages
 MD| CPU time per MD step [s]                     16.002647            16.002647
 MD| Energy drift per atom [K]          -0.531918779692E+01   0.000000000000E+00
 MD| Potential energy [hartree]         -0.110103927424E+04  -0.110103927424E+04
 MD| Kinetic energy [hartree]            0.273714878368E+00   0.273714878368E+00
 MD| Temperature [K]                             301.683139           301.683139
 MD| ***************************************************************************

 Number of electrons:                                                        512
 Number of occupied orbitals:                                                256
 Number of molecular orbitals:                                               256

 Number of orbital functions:                                               2560
 Number of independent orbital functions:                                   2560

 Extrapolation method: PS Nth order
 Extrapolation order:  1


 SCF WAVEFUNCTION OPTIMIZATION

  ----------------------------------- OT ---------------------------------------
  Minimizer      : DIIS                : direct inversion
                                         in the iterative subspace
                                         using   7 DIIS vectors
                                         safer DIIS on
  Preconditioner : FULL_KINETIC        : inversion of T + eS
  Precond_solver : DEFAULT
  stepsize       :    0.15000000                  energy_gap     :    0.20000000
  eps_taylor     :   0.10000E-15                  max_taylor     :             4
  ----------------------------------- OT ---------------------------------------

  Step     Update method      Time    Convergence         Total energy    Change
  ------------------------------------------------------------------------------
     1 OT DIIS     0.15E+00    0.2     0.00013786     -1101.0486943843 -1.10E+03
     2 OT DIIS     0.15E+00    0.2     0.00009123     -1101.0502090308 -1.51E-03
     3 OT DIIS     0.15E+00    0.2     0.00005384     -1101.0514038812 -1.19E-03
     4 OT DIIS     0.15E+00    0.2     0.00003712     -1101.0519507426 -5.47E-04
     5 OT DIIS     0.15E+00    0.2     0.00002135     -1101.0523403549 -3.90E-04
     6 OT DIIS     0.15E+00    0.2     0.00001269     -1101.0524714461 -1.31E-04
     7 OT DIIS     0.15E+00    0.2     0.00000739     -1101.0525151064 -4.37E-05

  *** SCF run converged in     7 steps ***


  Electronic density on regular grids:       -512.0000014196       -0.0000014196
  Core density on regular grids:              511.9999999954       -0.0000000046
  Total charge density on r-space grids:       -0.0000014243
  Total charge density g-space grids:          -0.0000014243

  Overlap energy of the core charge distribution:               0.00000508805724
  Self energy of the core charge distribution:              -2805.30499493854950
  Core Hamiltonian energy:                                    823.99140183898862
  Hartree energy:                                            1146.19295564049548
  Exchange-correlation energy:                               -265.93188273537976

  Total energy:                                             -1101.05251510638800

 ENERGY| Total FORCE_EVAL ( QS ) energy [a.u.]:            -1101.052529160531094

 MD| ***************************************************************************
 MD| Step number                                                               2
 MD| Time [fs]                                                          1.000000
 MD| Conserved quantity [hartree]                            -0.110076576443E+04
 MD| ---------------------------------------------------------------------------
 MD|                                          Instantaneous             Averages
 MD| CPU time per MD step [s]                      1.600648             8.801647
 MD| Energy drift per atom [K]          -0.565645796885E+01  -0.282822898442E+01
 MD| Potential energy [hartree]         -0.110105252916E+04  -0.110104590170E+04
 MD| Kinetic energy [hartree]            0.286764726145E+00   0.280239802256E+00
 MD| Temperature [K]                             316.066424           308.874781
 MD| ***************************************************************************

 Number of electrons:                                                        512
 Number of occupied orbitals:                                                256
 Number of molecular orbitals:                                               256

 Number of orbital functions:                                               2560
 Number of independent orbital functions:                                   2560

 Extrapolation method: PS Nth order
 Extrapolation order:  2


 SCF WAVEFUNCTION OPTIMIZATION

  ----------------------------------- OT ---------------------------------------
  Minimizer      : DIIS                : direct inversion
                                         in the iterative subspace
                                         using   7 DIIS vectors
                                         safer DIIS on
  Preconditioner : FULL_KINETIC        : inversion of T + eS
  Precond_solver : DEFAULT
  stepsize       :    0.15000000                  energy_gap     :    0.20000000
  eps_taylor     :   0.10000E-15                  max_taylor     :             4
  ----------------------------------- OT ---------------------------------------

  Step     Update method      Time    Convergence         Total energy    Change
  ------------------------------------------------------------------------------
     1 OT DIIS     0.15E+00    0.2     0.00011542     -1101.0706772289 -1.10E+03
     2 OT DIIS     0.15E+00    0.2     0.00008079     -1101.0717706328 -1.09E-03
     3 OT DIIS     0.15E+00    0.2     0.00004693     -1101.0728195513 -1.05E-03
     4 OT DIIS     0.15E+00    0.2     0.00003045     -1101.0732787903 -4.59E-04
     5 OT DIIS     0.15E+00    0.2     0.00001679     -1101.0735424681 -2.64E-04
     6 OT DIIS     0.15E+00    0.2     0.00001023     -1101.0736151174 -7.26E-05
     7 OT DIIS     0.15E+00    0.2     0.00000596     -1101.0736425218 -2.74E-05

  *** SCF run converged in     7 steps ***


  Electronic density on regular grids:       -512.0000013338       -0.0000013338
  Core density on regular grids:              511.9999999979       -0.0000000021
  Total charge density on r-space grids:       -0.0000013359
  Total charge density g-space grids:          -0.0000013359

  Overlap energy of the core charge distribution:               0.00000421765003
  Self energy of the core charge distribution:              -2805.30499493854950
  Core Hamiltonian energy:                                    822.43985601783470
  Hartree energy:                                            1147.30120942425265
  Exchange-correlation energy:                               -265.50971724298705

  Total energy:                                             -1101.07364252179923

 ENERGY| Total FORCE_EVAL ( QS ) energy [a.u.]:            -1101.073651822940974

 MD| ***************************************************************************
 MD| Step number                                                               3
 MD| Time [fs]                                                          1.500000
 MD| Conserved quantity [hartree]                            -0.110076625065E+04
 MD| ---------------------------------------------------------------------------
 MD|                                          Instantaneous             Averages
 MD| CPU time per MD step [s]                      1.587774             6.397023
 MD| Energy drift per atom [K]          -0.645611969795E+01  -0.403752588893E+01
 MD| Potential energy [hartree]         -0.110107365182E+04  -0.110105515174E+04
 MD| Kinetic energy [hartree]            0.307401171396E+00   0.289293591970E+00
 MD| Temperature [K]                             338.811507           318.853690
 MD| ***************************************************************************

 Number of electrons:                                                        512
 Number of occupied orbitals:                                                256
 Number of molecular orbitals:                                               256

 Number of orbital functions:                                               2560
 Number of independent orbital functions:                                   2560

 Extrapolation method: PS Nth order
 Extrapolation order:  3


 SCF WAVEFUNCTION OPTIMIZATION

  ----------------------------------- OT ---------------------------------------
  Minimizer      : DIIS                : direct inversion
                                         in the iterative subspace
                                         using   7 DIIS vectors
                                         safer DIIS on
  Preconditioner : FULL_KINETIC        : inversion of T + eS
  Precond_solver : DEFAULT
  stepsize       :    0.15000000                  energy_gap     :    0.20000000
  eps_taylor     :   0.10000E-15                  max_taylor     :             4
  ----------------------------------- OT ---------------------------------------

  Step     Update method      Time    Convergence         Total energy    Change
  ------------------------------------------------------------------------------
     1 OT DIIS     0.15E+00    0.2     0.00011704     -1101.0916450565 -1.10E+03
     2 OT DIIS     0.15E+00    0.2     0.00008237     -1101.0927732293 -1.13E-03
     3 OT DIIS     0.15E+00    0.2     0.00004631     -1101.0938785003 -1.11E-03
     4 OT DIIS     0.15E+00    0.2     0.00002767     -1101.0943286445 -4.50E-04
     5 OT DIIS     0.15E+00    0.2     0.00001491     -1101.0945258631 -1.97E-04
     6 OT DIIS     0.15E+00    0.2     0.00000949     -1101.0945746479 -4.88E-05

  *** SCF run converged in     6 steps ***


  Electronic density on regular grids:       -512.0000012182       -0.0000012182
  Core density on regular grids:              512.0000000002        0.0000000002
  Total charge density on r-space grids:       -0.0000012180
  Total charge density g-space grids:          -0.0000012180

  Overlap energy of the core charge distribution:               0.00000308114462
  Self energy of the core charge distribution:              -2805.30499493854950
  Core Hamiltonian energy:                                    820.48764070883169
  Hartree energy:                                            1148.70363470807524
  Exchange-correlation energy:                               -264.98085820735309

  Total energy:                                             -1101.09457464785100

 ENERGY| Total FORCE_EVAL ( QS ) energy [a.u.]:            -1101.094597649340812

 MD| ***************************************************************************
 MD| Step number                                                               4
 MD| Time [fs]                                                          2.000000
 MD| Conserved quantity [hartree]                            -0.110076682042E+04
 MD| ---------------------------------------------------------------------------
 MD|                                          Instantaneous             Averages
 MD| CPU time per MD step [s]                      1.427009             5.154519
 MD| Energy drift per atom [K]          -0.739320268881E+01  -0.487644508890E+01
 MD| Potential energy [hartree]         -0.110109459765E+04  -0.110106501322E+04
 MD| Kinetic energy [hartree]            0.327777224588E+00   0.298914500124E+00
 MD| Temperature [K]                             361.269591           329.457665
 MD| ***************************************************************************

 Number of electrons:                                                        512
 Number of occupied orbitals:                                                256
 Number of molecular orbitals:                                               256

 Number of orbital functions:                                               2560
 Number of independent orbital functions:                                   2560

 Extrapolation method: PS Nth order
 Extrapolation order:  3


 SCF WAVEFUNCTION OPTIMIZATION

  ----------------------------------- OT ---------------------------------------
  Minimizer      : DIIS                : direct inversion
                                         in the iterative subspace
                                         using   7 DIIS vectors
                                         safer DIIS on
  Preconditioner : FULL_KINETIC        : inversion of T + eS
  Precond_solver : DEFAULT
  stepsize       :    0.15000000                  energy_gap     :    0.20000000
  eps_taylor     :   0.10000E-15                  max_taylor     :             4
  ----------------------------------- OT ---------------------------------------

  Step     Update method      Time    Convergence         Total energy    Change
  ------------------------------------------------------------------------------
     1 OT DIIS     0.15E+00    0.2     0.00005270     -1101.1049327573 -1.10E+03
     2 OT DIIS     0.15E+00    0.2     0.00004349     -1101.1051804720 -2.48E-04
     3 OT DIIS     0.15E+00    0.2     0.00002430     -1101.1056642334 -4.84E-04
     4 OT DIIS     0.15E+00    0.2     0.00001598     -1101.1058223291 -1.58E-04
     5 OT DIIS     0.15E+00    0.2     0.00001011     -1101.1058982929 -7.60E-05
     6 OT DIIS     0.15E+00    0.2     0.00000618     -1101.1059286062 -3.03E-05

  *** SCF run converged in     6 steps ***


  Electronic density on regular grids:       -512.0000010695       -0.0000010695
  Core density on regular grids:              511.9999999989       -0.0000000011
  Total charge density on r-space grids:       -0.0000010706
  Total charge density g-space grids:          -0.0000010706

  Overlap energy of the core charge distribution:               0.00000200983274
  Self energy of the core charge distribution:              -2805.30499493854950
  Core Hamiltonian energy:                                    818.39055081849506
  Hartree energy:                                            1150.21783280404043
  Exchange-correlation energy:                               -264.40931930004172

  Total energy:                                             -1101.10592860622296

 ENERGY| Total FORCE_EVAL ( QS ) energy [a.u.]:            -1101.105940927662687

 MD| ***************************************************************************
 MD| Step number                                                               5
 MD| Time [fs]                                                          2.500000
 MD| Conserved quantity [hartree]                            -0.110076716344E+04
 MD| ---------------------------------------------------------------------------
 MD|                                          Instantaneous             Averages
 MD| CPU time per MD step [s]                      1.435223             4.410660
 MD| Energy drift per atom [K]          -0.795734970169E+01  -0.549262601146E+01
 MD| Potential energy [hartree]         -0.110110594093E+04  -0.110107319876E+04
 MD| Kinetic energy [hartree]            0.338777485422E+00   0.306887097184E+00
 MD| Temperature [K]                             373.393861           338.244904
 MD| ***************************************************************************

 Number of electrons:                                                        512
 Number of occupied orbitals:                                                256
 Number of molecular orbitals:                                               256

 Number of orbital functions:                                               2560
 Number of independent orbital functions:                                   2560

 Extrapolation method: PS Nth order
 Extrapolation order:  3


 SCF WAVEFUNCTION OPTIMIZATION

  ----------------------------------- OT ---------------------------------------
  Minimizer      : DIIS                : direct inversion
                                         in the iterative subspace
                                         using   7 DIIS vectors
                                         safer DIIS on
  Preconditioner : FULL_KINETIC        : inversion of T + eS
  Precond_solver : DEFAULT
  stepsize       :    0.15000000                  energy_gap     :    0.20000000
  eps_taylor     :   0.10000E-15                  max_taylor     :             4
  ----------------------------------- OT ---------------------------------------

  Step     Update method      Time    Convergence         Total energy    Change
  ------------------------------------------------------------------------------
     1 OT DIIS     0.15E+00    0.2     0.00004529     -1101.1011838957 -1.10E+03
     2 OT DIIS     0.15E+00    0.2     0.00003687     -1101.1013657837 -1.82E-04
     3 OT DIIS     0.15E+00    0.2     0.00001827     -1101.1017036836 -3.38E-04
     4 OT DIIS     0.15E+00    0.2     0.00001144     -1101.1017863950 -8.27E-05
     5 OT DIIS     0.15E+00    0.2     0.00000792     -1101.1018167020 -3.03E-05

  *** SCF run converged in     5 steps ***


  Electronic density on regular grids:       -512.0000009016       -0.0000009016
  Core density on regular grids:              511.9999999941       -0.0000000059
  Total charge density on r-space grids:       -0.0000009075
  Total charge density g-space grids:          -0.0000009075

  Overlap energy of the core charge distribution:               0.00000123742262
  Self energy of the core charge distribution:              -2805.30499493854950
  Core Hamiltonian energy:                                    816.35760600306412
  Hartree energy:                                            1151.69940328471785
  Exchange-correlation energy:                               -263.85383228863742

  Total energy:                                             -1101.10181670198244

 ENERGY| Total FORCE_EVAL ( QS ) energy [a.u.]:            -1101.101835631135600

 MD| ***************************************************************************
 MD| Step number                                                               6
 MD| Time [fs]                                                          3.000000
 MD| Conserved quantity [hartree]                            -0.110076702888E+04
 MD| ---------------------------------------------------------------------------
 MD|                                          Instantaneous             Averages
 MD| CPU time per MD step [s]                      1.241443             3.882457
 MD| Energy drift per atom [K]          -0.773603851329E+01  -0.586652809510E+01
 MD| Potential energy [hartree]         -0.110110183563E+04  -0.110107797157E+04
 MD| Kinetic energy [hartree]            0.334806752415E+00   0.311540373055E+00
 MD| Temperature [K]                             369.017397           343.373653
 MD| ***************************************************************************

 Number of electrons:                                                        512
 Number of occupied orbitals:                                                256
 Number of molecular orbitals:                                               256

 Number of orbital functions:                                               2560
 Number of independent orbital functions:                                   2560

 Extrapolation method: PS Nth order
 Extrapolation order:  3


 SCF WAVEFUNCTION OPTIMIZATION

  ----------------------------------- OT ---------------------------------------
  Minimizer      : DIIS                : direct inversion
                                         in the iterative subspace
                                         using   7 DIIS vectors
                                         safer DIIS on
  Preconditioner : FULL_KINETIC        : inversion of T + eS
  Precond_solver : DEFAULT
  stepsize       :    0.15000000                  energy_gap     :    0.20000000
  eps_taylor     :   0.10000E-15                  max_taylor     :             4
  ----------------------------------- OT ---------------------------------------

  Step     Update method      Time    Convergence         Total energy    Change
  ------------------------------------------------------------------------------
     1 OT DIIS     0.15E+00    0.2     0.00003580     -1101.0831177945 -1.10E+03
     2 OT DIIS     0.15E+00    0.2     0.00002846     -1101.0832300268 -1.12E-04
     3 OT DIIS     0.15E+00    0.2     0.00001311     -1101.0834078551 -1.78E-04
     4 OT DIIS     0.15E+00    0.2     0.00000750     -1101.0834456098 -3.78E-05

  *** SCF run converged in     4 steps ***


  Electronic density on regular grids:       -512.0000007423       -0.0000007423
  Core density on regular grids:              511.9999999907       -0.0000000093
  Total charge density on r-space grids:       -0.0000007517
  Total charge density g-space grids:          -0.0000007517

  Overlap energy of the core charge distribution:               0.00000077884084
  Self energy of the core charge distribution:              -2805.30499493854950
  Core Hamiltonian energy:                                    814.58658556731132
  Hartree energy:                                            1153.00150675409577
  Exchange-correlation energy:                               -263.36654377145692

  Total energy:                                             -1101.08344560975843

 ENERGY| Total FORCE_EVAL ( QS ) energy [a.u.]:            -1101.083456749199513

 MD| ***************************************************************************
 MD| Step number                                                               7
 MD| Time [fs]                                                          3.500000
 MD| Conserved quantity [hartree]                            -0.110076648509E+04
 MD| ---------------------------------------------------------------------------
 MD|                                          Instantaneous             Averages
 MD| CPU time per MD step [s]                      1.065372             3.480016
 MD| Energy drift per atom [K]          -0.684168746651E+01  -0.600583657673E+01
 MD| Potential energy [hartree]         -0.110108345675E+04  -0.110107875517E+04
 MD| Kinetic energy [hartree]            0.316971661445E+00   0.312316271397E+00
 MD| Temperature [K]                             349.359912           344.228833
 MD| ***************************************************************************

 Number of electrons:                                                        512
 Number of occupied orbitals:                                                256
 Number of molecular orbitals:                                               256

 Number of orbital functions:                                               2560
 Number of independent orbital functions:                                   2560

 Extrapolation method: PS Nth order
 Extrapolation order:  3


 SCF WAVEFUNCTION OPTIMIZATION

  ----------------------------------- OT ---------------------------------------
  Minimizer      : DIIS                : direct inversion
                                         in the iterative subspace
                                         using   7 DIIS vectors
                                         safer DIIS on
  Preconditioner : FULL_KINETIC        : inversion of T + eS
  Precond_solver : DEFAULT
  stepsize       :    0.15000000                  energy_gap     :    0.20000000
  eps_taylor     :   0.10000E-15                  max_taylor     :             4
  ----------------------------------- OT ---------------------------------------

  Step     Update method      Time    Convergence         Total energy    Change
  ------------------------------------------------------------------------------
     1 OT DIIS     0.15E+00    0.2     0.00003561     -1101.0577198077 -1.10E+03
     2 OT DIIS     0.15E+00    0.2     0.00002877     -1101.0578318947 -1.12E-04
     3 OT DIIS     0.15E+00    0.2     0.00001381     -1101.0580326403 -2.01E-04
     4 OT DIIS     0.15E+00    0.2     0.00000985     -1101.0580728040 -4.02E-05

  *** SCF run converged in     4 steps ***


  Electronic density on regular grids:       -512.0000006097       -0.0000006097
  Core density on regular grids:              511.9999999927       -0.0000000073
  Total charge density on r-space grids:       -0.0000006170
  Total charge density g-space grids:          -0.0000006170

  Overlap energy of the core charge distribution:               0.00000054144937
  Self energy of the core charge distribution:              -2805.30499493854950
  Core Hamiltonian energy:                                    813.21141893079539
  Hartree energy:                                            1154.02153570576115
  Exchange-correlation energy:                               -262.98603304341299

  Total energy:                                             -1101.05807280395652

 ENERGY| Total FORCE_EVAL ( QS ) energy [a.u.]:            -1101.058097631885175

 MD| ***************************************************************************
 MD| Step number                                                               8
 MD| Time [fs]                                                          4.000000
 MD| Conserved quantity [hartree]                            -0.110076580088E+04
 MD| ---------------------------------------------------------------------------
 MD|                                          Instantaneous             Averages
 MD| CPU time per MD step [s]                      1.076077             3.179524
 MD| Energy drift per atom [K]          -0.571639057087E+01  -0.596965582600E+01
 MD| Potential energy [hartree]         -0.110105809763E+04  -0.110107617298E+04
 MD| Kinetic energy [hartree]            0.292296756766E+00   0.309813832068E+00
 MD| Temperature [K]                             322.163719           341.470694
 MD| ***************************************************************************

 Number of electrons:                                                        512
 Number of occupied orbitals:                                                256
 Number of molecular orbitals:                                               256

 Number of orbital functions:                                               2560
 Number of independent orbital functions:                                   2560

 Extrapolation method: PS Nth order
 Extrapolation order:  3


 SCF WAVEFUNCTION OPTIMIZATION

  ----------------------------------- OT ---------------------------------------
  Minimizer      : DIIS                : direct inversion
                                         in the iterative subspace
                                         using   7 DIIS vectors
                                         safer DIIS on
  Preconditioner : FULL_KINETIC        : inversion of T + eS
  Precond_solver : DEFAULT
  stepsize       :    0.15000000                  energy_gap     :    0.20000000
  eps_taylor     :   0.10000E-15                  max_taylor     :             4
  ----------------------------------- OT ---------------------------------------

  Step     Update method      Time    Convergence         Total energy    Change
  ------------------------------------------------------------------------------
     1 OT DIIS     0.15E+00    0.2     0.00003429     -1101.0350856045 -1.10E+03
     2 OT DIIS     0.15E+00    0.2     0.00002718     -1101.0351886654 -1.03E-04
     3 OT DIIS     0.15E+00    0.2     0.00001234     -1101.0353596905 -1.71E-04
     4 OT DIIS     0.15E+00    0.2     0.00000873     -1101.0353912956 -3.16E-05

  *** SCF run converged in     4 steps ***


  Electronic density on regular grids:       -512.0000004826       -0.0000004826
  Core density on regular grids:              511.9999999968       -0.0000000032
  Total charge density on r-space grids:       -0.0000004858
  Total charge density g-space grids:          -0.0000004858

  Overlap energy of the core charge distribution:               0.00000043858969
  Self energy of the core charge distribution:              -2805.30499493854950
  Core Hamiltonian energy:                                    812.30739461068219
  Hartree energy:                                            1154.69847309457191
  Exchange-correlation energy:                               -262.73626450087721

  Total energy:                                             -1101.03539129558294

 ENERGY| Total FORCE_EVAL ( QS ) energy [a.u.]:            -1101.035409154834497

 MD| ***************************************************************************
 MD| Step number                                                               9
 MD| Time [fs]                                                          4.500000
 MD| Conserved quantity [hartree]                            -0.110076526244E+04
 MD| ---------------------------------------------------------------------------
 MD|                                          Instantaneous             Averages
 MD| CPU time per MD step [s]                      1.079902             2.946233
 MD| Energy drift per atom [K]          -0.483084510613E+01  -0.584312130157E+01
 MD| Potential energy [hartree]         -0.110103540915E+04  -0.110107164366E+04
 MD| Kinetic energy [hartree]            0.270146716636E+00   0.305406374798E+00
 MD| Temperature [K]                             297.750382           336.612881
 MD| ***************************************************************************

 Number of electrons:                                                        512
 Number of occupied orbitals:                                                256
 Number of molecular orbitals:                                               256

 Number of orbital functions:                                               2560
 Number of independent orbital functions:                                   2560

 Extrapolation method: PS Nth order
 Extrapolation order:  3


 SCF WAVEFUNCTION OPTIMIZATION

  ----------------------------------- OT ---------------------------------------
  Minimizer      : DIIS                : direct inversion
                                         in the iterative subspace
                                         using   7 DIIS vectors
                                         safer DIIS on
  Preconditioner : FULL_KINETIC        : inversion of T + eS
  Precond_solver : DEFAULT
  stepsize       :    0.15000000                  energy_gap     :    0.20000000
  eps_taylor     :   0.10000E-15                  max_taylor     :             4
  ----------------------------------- OT ---------------------------------------

  Step     Update method      Time    Convergence         Total energy    Change
  ------------------------------------------------------------------------------
     1 OT DIIS     0.15E+00    0.2     0.00003985     -1101.0228061711 -1.10E+03
     2 OT DIIS     0.15E+00    0.2     0.00003281     -1101.0229478961 -1.42E-04
     3 OT DIIS     0.15E+00    0.2     0.00001595     -1101.0232355308 -2.88E-04
     4 OT DIIS     0.15E+00    0.2     0.00001238     -1101.0232889338 -5.34E-05
     5 OT DIIS     0.15E+00    0.2     0.00000814     -1101.0233364798 -4.75E-05

  *** SCF run converged in     5 steps ***


  Electronic density on regular grids:       -512.0000003321       -0.0000003321
  Core density on regular grids:              511.9999999981       -0.0000000019
  Total charge density on r-space grids:       -0.0000003340
  Total charge density g-space grids:          -0.0000003340

  Overlap energy of the core charge distribution:               0.00000042266767
  Self energy of the core charge distribution:              -2805.30499493854950
  Core Hamiltonian energy:                                    811.91551832597474
  Hartree energy:                                            1154.99545074401476
  Exchange-correlation energy:                               -262.62931103389701

  Total energy:                                             -1101.02333647978935

 ENERGY| Total FORCE_EVAL ( QS ) energy [a.u.]:            -1101.023361433730770

 MD| ***************************************************************************
 MD| Step number                                                              10
 MD| Time [fs]                                                          5.000000
 MD| Conserved quantity [hartree]                            -0.110076502979E+04
 MD| ---------------------------------------------------------------------------
 MD|                                          Instantaneous             Averages
 MD| CPU time per MD step [s]                      1.251713             2.776781
 MD| Energy drift per atom [K]          -0.444822509102E+01  -0.570363168051E+01
 MD| Potential energy [hartree]         -0.110102336143E+04  -0.110106681544E+04
 MD| Kinetic energy [hartree]            0.258331639424E+00   0.300698901260E+00
 MD| Temperature [K]                             284.728037           331.424397
 MD| ***************************************************************************

 -------------------------------------------------------------------------------
 -                                                                             -
 -                                DBCSR STATISTICS                             -
 -                                                                             -
 -------------------------------------------------------------------------------
 COUNTER                                    TOTAL       BLAS       SMM       ACC
 flops     9 x    32 x    32            207618048       0.0%    100.0%      0.0%
 flops    22 x    32 x    32            253755392       0.0%    100.0%      0.0%
 flops    32 x    32 x    32          23823646720       0.0%    100.0%      0.0%
 flops   209 x    32 x   209          41866665984       0.0%    100.0%      0.0%
 flops   209 x    32 x   213          42667941888       0.0%    100.0%      0.0%
 flops   213 x    32 x   209          42667941888       0.0%    100.0%      0.0%
 flops   213 x    32 x   213          43484553216       0.0%    100.0%      0.0%
 flops     9 x     9 x    32          43488866304       0.0%    100.0%      0.0%
 flops   209 x    32 x   218          43669536768       0.0%    100.0%      0.0%
 flops   218 x    32 x   209          43669536768       0.0%    100.0%      0.0%
 flops   213 x    32 x   218          44505317376       0.0%    100.0%      0.0%
 flops   218 x    32 x   213          44505317376       0.0%    100.0%      0.0%
 flops    32 x    32 x   209          45254967296       0.0%    100.0%      0.0%
 flops   218 x    32 x   218          45550043136       0.0%    100.0%      0.0%
 flops    32 x    32 x   213          46121091072       0.0%    100.0%      0.0%
 flops    32 x    32 x   218          47203745792       0.0%    100.0%      0.0%
 flops    22 x     9 x    32          53007482880       0.0%    100.0%      0.0%
 flops     9 x    22 x    32          53056346112       0.0%    100.0%      0.0%
 flops   209 x    32 x    32          55664705536       0.0%    100.0%      0.0%
 flops   213 x    32 x    32          56730058752       0.0%    100.0%      0.0%
 flops   218 x    32 x    32          58061750272       0.0%    100.0%      0.0%
 flops    22 x    22 x    32          65976401920       0.0%    100.0%      0.0%
 flops     9 x    32 x     9         182709540864       0.0%    100.0%      0.0%
 flops    22 x    32 x     9         224556456960       0.0%    100.0%      0.0%
 flops     9 x    32 x    22         224556456960       0.0%    100.0%      0.0%
 flops    22 x    32 x    22         275070844928       0.0%    100.0%      0.0%
 flops inhomo. stacks                           0       0.0%      0.0%      0.0%
 flops total                         1.848331E+12       0.0%    100.0%      0.0%
 flops max/rank                     19.958175E+09       0.0%    100.0%      0.0%
 matmuls inhomo. stacks                         0       0.0%      0.0%      0.0%
 matmuls total                           99677824       0.0%    100.0%      0.0%
 number of processed stacks               3044288       0.0%    100.0%      0.0%
 average stack size                                     0.0      32.7       0.0
 marketing flops                     2.071687E+12
 -------------------------------------------------------------------------------
 # multiplications                           2169
 max memory usage/rank             564.428800E+06
 # max total images/rank                        1
 # max 3D layers                                1
 # MPI messages exchanged                 6871392
 MPI messages size (bytes):
  total size                       349.181903E+09
  min size                           0.000000E+00
  max size                         380.192000E+03
  average size                      50.816762E+03
 MPI breakdown and total messages size (bytes):
             size <=      128             2798136                        0
       128 < size <=     8192             1358280              11127029760
      8192 < size <=    32768                   0                        0
     32768 < size <=   131072             2100384             114708971520
    131072 < size <=  4194304              614592             223348151488
   4194304 < size <= 16777216                   0                        0
  16777216 < size                               0                        0
 -------------------------------------------------------------------------------
 -                                                                             -
 -                      DBCSR MESSAGE PASSING PERFORMANCE                      -
 -                                                                             -
 -------------------------------------------------------------------------------
 ROUTINE             CALLS      AVE VOLUME [Bytes]
 MP_Bcast               27                     12.
 MP_Allreduce        11603                     17.
 MP_Alltoall          8393                  34510.
 MP_ISend           104068                  26226.
 MP_IRecv           104068                  25711.
 -------------------------------------------------------------------------------

 -------------------------------------------------------------------------------
 -                                                                             -
 -                                GRID STATISTICS                              -
 -                                                                             -
 -------------------------------------------------------------------------------
 LP    KERNEL             BACKEND                              COUNT     PERCENT
 1     collocate ortho    REF                               15703825      21.19%
 1     integrate ortho    REF                               15042650      20.30%
 2     integrate ortho    REF                               10342989      13.96%
 2     collocate ortho    REF                                9786844      13.21%
 0     collocate ortho    REF                                8676405      11.71%
 0     integrate ortho    REF                                7861392      10.61%
 3     integrate ortho    REF                                3087187       4.17%
 3     collocate ortho    REF                                2391957       3.23%
 4     integrate ortho    REF                                 395245       0.53%
 0     collocate general  REF                                 304128       0.41%
 1     integrate general  REF                                 304128       0.41%
 4     collocate ortho    REF                                 188108       0.25%
 5     integrate ortho    REF                                  17676       0.02%
 -------------------------------------------------------------------------------

 MEMORY| Estimated peak process memory [MiB]                                 539

 -------------------------------------------------------------------------------
 -                                                                             -
 -                         MESSAGE PASSING PERFORMANCE                         -
 -                                                                             -
 -------------------------------------------------------------------------------

 ROUTINE             CALLS      AVE VOLUME [Bytes]
 MP_Group                4
 MP_Bcast             3675                  62532.
 MP_Allreduce        10139                    313.
 MP_Sync              1508
 MP_Alltoall          2062               26735374.
 MP_ISendRecv        66924                   3780.
 MP_Wait             78274
 MP_comm_split          50
 MP_ISend            22728                  34367.
 MP_IRecv            22728                  34367.
 -------------------------------------------------------------------------------


 -------------------------------------------------------------------------------
 -                                                                             -
 -                           R E F E R E N C E S                               -
 -                                                                             -
 -------------------------------------------------------------------------------
 
 CP2K version 9.1, the CP2K developers group (2021).
 CP2K is freely available from https://www.cp2k.org/ .

 Kuehne,Thomas D.; Iannuzzi,Marcella; Del Ben,Mauro;
 Rybkin,Vladimir V.; Seewald,Patrick; Stein,Frederick; Laino,Teodoro;
 Khaliullin,Rustam Z.; Schuett,Ole; Schiffmann,Florian; Golze,Dorothea;
 Wilhelm,Jan; Chulkov,Sergey; Bani-Hashemian,Mohammad Hossein;
 Weber,Valery; Borstnik,Urban; Taillefumier,Mathieu;
 Jakobovits,Alice Shoshana; Lazzaro,Alfio; Pabst,Hans; Mueller,Tiziano;
 Schade,Robert; Guidon,Manuel; Andermatt,Samuel; Holmberg,Nico;
 Schenter,Gregory K.; Hehn,Anna; Bussy,Augustin; Belleflamme,Fabian;
 Tabacchi,Gloria; Gloess,Andreas; Lass,Michael; Bethune,Iain;
 Mundy,Christopher J.; Plessl,Christian; Watkins,Matt;
 VandeVondele,Joost; Krack,Matthias; Hutter,Juerg. 
 The Journal of Chemical Physics, 152 (19), (2020). 
 CP2K: An electronic structure and molecular dynamics software package -
 Quickstep: Efficient and accurate electronic structure calculations.
 https://doi.org/10.1063/5.0007045

 Schuett, Ole; Messmer, Peter; Hutter, Juerg; VandeVondele, Joost. 
 Electronic Structure Calculations on Graphics Processing Units, John
 Wiley & Sons, Ltd, 173-190 (2016). 
 GPU-Accelerated Sparse Matrix-Matrix Multiplication for
 Linear Scaling Density Functional Theory.
 https://doi.org/10.1002/9781118670712.ch8

 Heinecke, A; Henry, G; Hutchinson, M; Pabst, H. 
 Proceedings of Intl. Supercomputing Conference, 981-991 (2016). 
 LIBXSMM: Accelerating Small Matrix Multiplications
 by Runtime Code Generation.
 https://doi.org/10.1109/SC.2016.83

 Borstnik, U; VandeVondele, J; Weber, V; Hutter, J. 
 PARALLEL COMPUTING, 40 (5-6), 47-58 (2014). 
 Sparse matrix multiplication: The distributed block-compressed sparse
 row library.
 https://doi.org/10.1016/j.parco.2014.03.012

 Hutter, J; Iannuzzi, M; Schiffmann, F; VandeVondele, J. 
 WIREs Comput Mol Sci., 4 (1), 15-25 (2014). 
 CP2K: atomistic simulations of condensed matter systems.
 https://doi.org/10.1002/wcms.1159

 Marek, A; Blum, V; Johanni, R; Havu, V; Lang, B; Auckenthaler, T;
 Heinecke, A; Bungartz, H; Lederer, H. 
 Journal of Physics: Condensed Matter, 26 (21), (2014). 
 The ELPA library: scalable parallel eigenvalue solutions for
 electronic structure
 theory and computational science.
 https://doi.org/10.1088/0953-8984/26/21/213201

 Krack, M. 
 THEORETICAL CHEMISTRY ACCOUNTS, 114 (1-3), 145-152 (2005). 
 Pseudopotentials for H to Kr optimized for gradient-corrected
 exchange-correlation functionals.
 https://doi.org/10.1007/s00214-005-0655-y

 VandeVondele, J; Krack, M; Mohamed, F; Parrinello, M; Chassaing, T;
 Hutter, J. COMPUTER PHYSICS COMMUNICATIONS, 167 (2), 103-128 (2005). 
 QUICKSTEP: Fast and accurate density functional calculations using a
 mixed Gaussian and plane waves approach.
 https://doi.org/10.1016/j.cpc.2004.12.014

 Frigo, M; Johnson, SG. 
 PROCEEDINGS OF THE IEEE, 93 (2), 216-231 (2005). 
 The design and implementation of FFTW3.
 https://doi.org/10.1109/JPROC.2004.840301

 VandeVondele, J; Hutter, J. 
 JOURNAL OF CHEMICAL PHYSICS, 118 (10), 4365-4369 (2003). 
 An efficient orbital transformation method for electronic structure
 calculations.
 https://doi.org/10.1063/1.1543154

 Hartwigsen, C; Goedecker, S; Hutter, J. 
 PHYSICAL REVIEW B, 58 (7), 3641-3662 (1998). 
 Relativistic separable dual-space Gaussian pseudopotentials from H to Rn.
 https://doi.org/10.1103/PhysRevB.58.3641

 Lippert, G; Hutter, J; Parrinello, M. 
 MOLECULAR PHYSICS, 92 (3), 477-487 (1997). 
 A hybrid Gaussian and plane wave density functional scheme.
 https://doi.org/10.1080/002689797170220

 Goedecker, S; Teter, M; Hutter, J. 
 PHYSICAL REVIEW B, 54 (3), 1703-1710 (1996). 
 Separable dual-space Gaussian pseudopotentials.
 https://doi.org/10.1103/PhysRevB.54.1703


 -------------------------------------------------------------------------------
 -                                                                             -
 -                                T I M I N G                                  -
 -                                                                             -
 -------------------------------------------------------------------------------
 SUBROUTINE                       CALLS  ASD         SELF TIME        TOTAL TIME
                                MAXIMUM       AVERAGE  MAXIMUM  AVERAGE  MAXIMUM
 CP2K                                 1  1.0    0.250    0.257   28.284   28.284
 qs_mol_dyn_low                       1  2.0    0.004    0.006   27.772   27.784
 qs_forces                           11  3.9    0.002    0.002   27.250   27.257
 qs_energies                         11  4.9    0.001    0.001   25.748   25.759
 scf_env_do_scf                      11  5.9    0.000    0.001   21.121   21.121
 scf_env_do_scf_inner_loop          106  6.5    0.003    0.131   19.035   19.036
 velocity_verlet                     10  3.0    0.001    0.001   13.966   13.970
 rebuild_ks_matrix                  117  8.3    0.000    0.001    8.283    8.423
 qs_ks_build_kohn_sham_matrix       117  9.3    0.010    0.012    8.282    8.423
 qs_ks_update_qs_env                117  7.6    0.001    0.001    7.258    7.385
 qs_scf_new_mos                     106  7.5    0.001    0.001    7.108    7.244
 qs_scf_loop_do_ot                  106  8.5    0.001    0.001    7.107    7.243
 dbcsr_multiply_generic            2169 12.4    0.098    0.106    6.781    7.051
 sum_up_and_integrate               117 10.3    0.012    0.013    6.885    6.892
 integrate_v_rspace                 117 11.3    0.002    0.003    6.873    6.880
 ot_scf_mini                        106  9.5    0.002    0.002    6.586    6.703
 qs_rho_update_rho                  117  7.6    0.001    0.001    6.151    6.167
 calculate_rho_elec                 117  8.6    0.009    0.010    6.150    6.167
 rs_pw_transfer                     958 11.9    0.006    0.007    4.418    4.561
 multiply_cannon                   2169 13.4    0.181    0.194    3.598    4.157
 ot_mini                            106 10.5    0.001    0.001    3.605    3.730
 multiply_cannon_loop              2169 14.4    0.158    0.202    3.005    3.614
 grid_integrate_task_list           117 12.3    3.222    3.398    3.222    3.398
 grid_collocate_task_list           117  9.6    3.115    3.315    3.115    3.315
 potential_pw2rs                    117 12.3    0.005    0.005    2.967    2.973
 qs_ot_get_derivative               106 11.5    0.001    0.001    2.683    2.802
 qs_energies_init_hamiltonians       11  5.9    0.000    0.000    2.780    2.787
 density_rs2pw                      117  9.6    0.004    0.004    2.625    2.761
 mp_waitall_1                    313918 16.0    1.965    2.689    1.965    2.689
 qs_env_update_s_mstruct             11  6.9    0.000    0.000    2.484    2.557
 init_scf_loop                       11  6.9    0.000    0.000    2.061    2.062
 qs_ot_get_p                        117 10.4    0.001    0.001    1.891    2.035
 pw_transfer                       1415 11.6    0.057    0.063    1.974    2.033
 qs_create_task_list                 11  7.9    0.000    0.001    1.914    1.989
 generate_qs_task_list               11  8.9    0.028    0.043    1.914    1.989
 make_m2s                          4338 13.4    0.080    0.087    1.810    1.970
 fft_wrap_pw1pw2                   1181 12.6    0.004    0.005    1.907    1.968
 distribute_tasks                    11  9.9    0.007    0.008    1.882    1.952
 create_local_tasks                  11 10.9    0.003    0.005    1.756    1.811
 mp_alltoall_l11v                    11 11.9    1.752    1.807    1.752    1.807
 init_scf_run                        11  5.9    0.000    0.001    1.723    1.724
 scf_env_initial_rho_setup           11  6.9    0.000    0.000    1.723    1.724
 mp_alltoall_d11v                  2114 13.8    1.521    1.710    1.521    1.710
 multiply_cannon_metrocomm3       26028 15.4    0.074    0.082    0.625    1.697
 mp_waitany                        7284 13.9    1.398    1.633    1.398    1.633
 make_images                       4338 14.4    0.122    0.132    1.424    1.579
 fft_wrap_pw1pw2_140                479 13.2    0.033    0.039    1.271    1.359
 multiply_cannon_multrec          26028 15.4    0.813    1.276    0.823    1.287
 mp_sum_l                         10572 13.2    0.757    1.265    0.757    1.265
 fft3d_pb                           479 14.2    0.291    0.378    1.188    1.264
 rs_grid_zero                       256 14.8    1.208    1.228    1.208    1.228
 prepare_preconditioner              11  7.9    0.000    0.000    1.125    1.140
 make_preconditioner                 11  8.9    0.000    0.000    1.125    1.140
 rs_pw_transfer_PW2RS_140           128 13.9    0.202    0.223    1.091    1.127
 rs_pw_transfer_PW2RS_50            117 14.3    0.135    0.174    1.050    1.116
 make_full_inverse_cholesky          11  9.9    0.000    0.000    1.071    1.092
 multiply_cannon_metrocomm1       26028 15.4    0.078    0.089    0.649    1.091
 qs_ks_update_qs_env_forces          11  4.9    0.000    0.000    1.050    1.064
 qs_ot_get_derivative_diag           49 12.0    0.001    0.001    0.986    1.047
 rs_pw_transfer_RS2PW_140           128 11.5    0.232    0.254    0.866    1.023
 qs_ot_p2m_diag                      50 11.0    0.003    0.007    1.014    1.021
 wfi_extrapolate                     11  7.9    0.001    0.001    1.016    1.016
 mp_alltoall_z22v                  1660 16.5    0.869    0.960    0.869    0.960
 dbcsr_complete_redistribute        329 12.2    0.066    0.087    0.906    0.952
 mp_sum_d                          4089 12.0    0.564    0.911    0.564    0.911
 apply_preconditioner_dbcsr         117 12.6    0.000    0.000    0.743    0.908
 apply_single                       117 13.6    0.000    0.000    0.742    0.908
 ot_diis_step                       106 11.5    0.004    0.004    0.906    0.906
 mp_isend_dv                      55234 16.3    0.615    0.886    0.615    0.886
 cp_dbcsr_syevd                      50 12.0    0.003    0.004    0.868    0.870
 qs_ot_get_derivative_taylor         57 13.0    0.001    0.001    0.785    0.843
 rs_gather_matrices                 117 12.3    0.027    0.032    0.651    0.787
 cp_fm_diag_elpa                     50 13.0    0.000    0.000    0.779    0.780
 copy_dbcsr_to_fm                   153 11.3    0.003    0.003    0.707    0.755
 make_images_sizes                 4338 15.4    0.006    0.006    0.532    0.745
 mp_alltoall_i44                   4338 16.4    0.527    0.739    0.527    0.739
 multiply_cannon_metrocomm4       23859 15.4    0.074    0.079    0.549    0.738
 rs_pw_transfer_RS2PW_50            117 11.6    0.165    0.202    0.641    0.733
 cp_fm_redistribute_end              50 14.0    0.685    0.727    0.689    0.728
 make_images_data                  4338 15.4    0.051    0.060    0.558    0.725
 cp_fm_diag_elpa_base                50 14.0    0.038    0.677    0.038    0.688
 fft3d_ps                           702 15.0    0.045    0.094    0.616    0.670
 calculate_dm_sparse                117  9.5    0.000    0.000    0.607    0.670
 hybrid_alltoall_any               4491 16.3    0.049    0.102    0.487    0.636
 cp_dbcsr_sm_fm_multiply             37  9.5    0.001    0.001    0.619    0.621
 calculate_rho_core                  11  7.9    0.012    0.013    0.567    0.609
 -------------------------------------------------------------------------------

 The number of warnings for this run is : 1
 
 -------------------------------------------------------------------------------
  **** **** ******  **  PROGRAM ENDED AT                 2023-08-03 13:56:04.736
 ***** ** ***  *** **   PROGRAM RAN ON                                   r1i0n28
 **    ****   ******    PROGRAM RAN BY                             mrnuff-cirrus
 ***** **    ** ** **   PROGRAM PROCESS ID                               3764145
  **** **  *******  **  PROGRAM STOPPED IN /mnt/lustre/indy2lfs/work/tc047/tc047
                                           /mrnuff-cirrus/cp2k/nuff-benchmarks/H
                                           2O-64-8node
 DBCSR| CPU Multiplication driver                                           XSMM
 DBCSR| Multrec recursion limit                                              512
 DBCSR| Multiplication stack size                                           1000
 DBCSR| Maximum elements for images                                    UNLIMITED
 DBCSR| Multiplicative factor virtual images                                   1
 DBCSR| Use multiplication densification                                       T
 DBCSR| Multiplication size stacks                                             3
 DBCSR| Use memory pool for CPU allocation                                     F
 DBCSR| Number of 3D layers                                               SINGLE
 DBCSR| Use MPI memory allocation                                              F
 DBCSR| Use RMA algorithm                                                      F
 DBCSR| Use Communication thread                                               T
 DBCSR| Communication thread load                                             83
 DBCSR| MPI: My node id                                                        0
 DBCSR| MPI: Number of nodes                                                  36
 DBCSR| OMP: Current number of threads                                         2
 DBCSR| OMP: Max number of threads                                             2
 DBCSR| Split modifier for TAS multiplication algorithm                  1.0E+00


  **** **** ******  **  PROGRAM STARTED AT               2023-08-03 14:08:32.149
 ***** ** ***  *** **   PROGRAM STARTED ON                               r1i0n28
 **    ****   ******    PROGRAM STARTED BY                         mrnuff-cirrus
 ***** **    ** ** **   PROGRAM PROCESS ID                               3770385
  **** **  *******  **  PROGRAM STARTED IN /mnt/lustre/indy2lfs/work/tc047/tc047
                                           /mrnuff-cirrus/cp2k/nuff-benchmarks/H
                                           2O-64-8node

 CP2K| version string:                                          CP2K version 9.1
 CP2K| source code revision number:                                  git:d8d7100
 CP2K| cp2kflags: omp fftw3 libxc elpa parallel mpi3 scalapack xsmm plumed2 spgl
 CP2K|            ib mkl
 CP2K| is freely available from                            https://www.cp2k.org/
 CP2K| Program compiled at                           Wed Aug 2 15:51:15 BST 2023
 CP2K| Program compiled on                                         cirrus-login2
 CP2K| Program compiled for                                         Cirrus-intel
 CP2K| Data directory path    /work/tc047/tc047/mrnuff-cirrus/cp2k/cp2k-9.1/data
 CP2K| Input file name        /work/tc047/tc047/mrnuff-cirrus/cp2k/benchmarks/QS
 
 GLOBAL| Force Environment number                                              1
 GLOBAL| Basis set file name                                      GTH_BASIS_SETS
 GLOBAL| Potential file name                                           POTENTIAL
 GLOBAL| MM Potential file name                                     MM_POTENTIAL
 GLOBAL| Coordinate file name                                      __STD_INPUT__
 GLOBAL| Method name                                                        CP2K
 GLOBAL| Project name                                                     H2O-64
 GLOBAL| Run type                                                             MD
 GLOBAL| FFT library                                                       FFTW3
 GLOBAL| Diagonalization library                                            ELPA
 GLOBAL| Minimum number of eigenvectors for ELPA usage                        16
 GLOBAL| Orthonormality check for eigenvectors                          DISABLED
 GLOBAL| Matrix multiplication library                                 ScaLAPACK
 GLOBAL| All-to-all communication in single precision                          F
 GLOBAL| FFTs using library dependent lengths                                  F
 GLOBAL| Grid backend                                                       AUTO
 GLOBAL| Global print level                                                  LOW
 GLOBAL| MPI I/O enabled                                                       T
 GLOBAL| Total number of message passing processes                            36
 GLOBAL| Number of threads for this process                                    2
 GLOBAL| This output is from process                                           0
 GLOBAL| Stack size for threads created by OpenMP (OMP_STACKSIZE)        default
 GLOBAL| CPU model name                Intel(R) Xeon(R) CPU E5-2695 v4 @ 2.10GHz
 GLOBAL| CPUID                                                              1002

 MEMORY| system memory details [Kb]
 MEMORY|                        rank 0           min           max       average
[...]
 flops   191 x    64 x    32           9538240512       0.0%    100.0%      0.0%
 flops   191 x    64 x    64           9538240512       0.0%    100.0%      0.0%
 flops   209 x    32 x   422          10566825984       0.0%    100.0%      0.0%
 flops   209 x    64 x   422          10566825984       0.0%    100.0%      0.0%
 flops   209 x    32 x   427          10692025344       0.0%    100.0%      0.0%
 flops   209 x    64 x   427          10692025344       0.0%    100.0%      0.0%
 flops   209 x    32 x   431          10792184832       0.0%    100.0%      0.0%
 flops   209 x    64 x   431          10792184832       0.0%    100.0%      0.0%
 flops   218 x    32 x   422          11021856768       0.0%    100.0%      0.0%
 flops   218 x    64 x   422          11021856768       0.0%    100.0%      0.0%
 flops   218 x    32 x   427          11152447488       0.0%    100.0%      0.0%
 flops   218 x    64 x   427          11152447488       0.0%    100.0%      0.0%
 flops   218 x    32 x   431          11256920064       0.0%    100.0%      0.0%
 flops   218 x    64 x   431          11256920064       0.0%    100.0%      0.0%
 flops   231 x    32 x   422          11679123456       0.0%    100.0%      0.0%
 flops   231 x    64 x   422          11679123456       0.0%    100.0%      0.0%
 flops   231 x    32 x   427          11817501696       0.0%    100.0%      0.0%
 flops   231 x    64 x   427          11817501696       0.0%    100.0%      0.0%
 flops   231 x    32 x   431          11928204288       0.0%    100.0%      0.0%
 flops   231 x    64 x   431          11928204288       0.0%    100.0%      0.0%
 flops   191 x    32 x   422          14485146624       0.0%    100.0%      0.0%
 flops   191 x    64 x   422          14485146624       0.0%    100.0%      0.0%
 flops   191 x    32 x   427          14656771584       0.0%    100.0%      0.0%
 flops   191 x    64 x   427          14656771584       0.0%    100.0%      0.0%
 flops   191 x    32 x   431          14794071552       0.0%    100.0%      0.0%
 flops   191 x    64 x   431          14794071552       0.0%    100.0%      0.0%
 flops     9 x     9 x    64          21744433152       0.0%    100.0%      0.0%
 flops     9 x     9 x    32          21744433152       0.0%    100.0%      0.0%
 flops    32 x    64 x   422          22844014592       0.0%    100.0%      0.0%
 flops    32 x    32 x   422          22844014592       0.0%    100.0%      0.0%
 flops    32 x    64 x   427          23114678272       0.0%    100.0%      0.0%
 flops    32 x    32 x   427          23114678272       0.0%    100.0%      0.0%
 flops    32 x    64 x   431          23331209216       0.0%    100.0%      0.0%
 flops    32 x    32 x   431          23331209216       0.0%    100.0%      0.0%
 flops    22 x     9 x    64          26503741440       0.0%    100.0%      0.0%
 flops    22 x     9 x    32          26503741440       0.0%    100.0%      0.0%
 flops     9 x    22 x    64          26528173056       0.0%    100.0%      0.0%
 flops     9 x    22 x    32          26528173056       0.0%    100.0%      0.0%
 flops    22 x    22 x    64          32988200960       0.0%    100.0%      0.0%
 flops    22 x    22 x    32          32988200960       0.0%    100.0%      0.0%
 flops     9 x    32 x     9         182709540864       0.0%    100.0%      0.0%
 flops    22 x    32 x     9         224556456960       0.0%    100.0%      0.0%
 flops     9 x    32 x    22         224556456960       0.0%    100.0%      0.0%
 flops    22 x    32 x    22         275070844928       0.0%    100.0%      0.0%
 flops inhomo. stacks                           0       0.0%      0.0%      0.0%
 flops total                         1.848331E+12       0.0%    100.0%      0.0%
 flops max/rank                     78.411931E+09       0.0%    100.0%      0.0%
 matmuls inhomo. stacks                         0       0.0%      0.0%      0.0%
 matmuls total                           94343388       0.0%    100.0%      0.0%
 number of processed stacks               1282944       0.0%    100.0%      0.0%
 average stack size                                     0.0      73.5       0.0
 marketing flops                     2.071687E+12
 -------------------------------------------------------------------------------
 # multiplications                           2169
 max memory usage/rank             441.307136E+06
 # max total images/rank                        1
 # max 3D layers                                1
 # MPI messages exchanged                  780840
 MPI messages size (bytes):
  total size                       158.720229E+09
  min size                           0.000000E+00
  max size                           1.486088E+06
  average size                     203.268562E+03
 MPI breakdown and total messages size (bytes):
             size <=      128                5610                        0
       128 < size <=     8192              154460               1265336320
      8192 < size <=    32768              192910               3792404480
     32768 < size <=   131072              238680              26070220800
    131072 < size <=  4194304              189180             127592107840
   4194304 < size <= 16777216                   0                        0
  16777216 < size                               0                        0
 -------------------------------------------------------------------------------
 -                                                                             -
 -                      DBCSR MESSAGE PASSING PERFORMANCE                      -
 -                                                                             -
 -------------------------------------------------------------------------------
 ROUTINE             CALLS      AVE VOLUME [Bytes]
 MP_Bcast               95                     12.
 MP_Allreduce        11739                     17.
 MP_Alltoall          8393                  40531.
 MP_ISend            52012                  96816.
 MP_IRecv            52012                  94423.
 -------------------------------------------------------------------------------

 -------------------------------------------------------------------------------
 -                                                                             -
 -                                GRID STATISTICS                              -
 -                                                                             -
 -------------------------------------------------------------------------------
 LP    KERNEL             BACKEND                              COUNT     PERCENT
 1     collocate ortho    REF                               15703825      21.32%
 1     integrate ortho    REF                               15042650      20.43%
 2     integrate ortho    REF                               10342989      14.04%
 2     collocate ortho    REF                                9786844      13.29%
 0     collocate ortho    REF                                8676405      11.78%
 0     integrate ortho    REF                                7861392      10.67%
 3     integrate ortho    REF                                3087187       4.19%
 3     collocate ortho    REF                                2391957       3.25%
 4     integrate ortho    REF                                 395245       0.54%
 4     collocate ortho    REF                                 188108       0.26%
 0     collocate general  REF                                  76032       0.10%
 1     integrate general  REF                                  76032       0.10%
 5     integrate ortho    REF                                  17676       0.02%
 -------------------------------------------------------------------------------

 MEMORY| Estimated peak process memory [MiB]                                 420

 -------------------------------------------------------------------------------
 -                                                                             -
 -                         MESSAGE PASSING PERFORMANCE                         -
 -                                                                             -
 -------------------------------------------------------------------------------

 ROUTINE             CALLS      AVE VOLUME [Bytes]
 MP_Group                4
 MP_Bcast             3675                  62609.
 MP_Allreduce        10136                    349.
 MP_Sync               104
 MP_Alltoall          1815                1499002.
 MP_ISendRecv        16380                  18700.
 MP_Wait             38854
 MP_comm_split          50
 MP_ISend            20536                  59681.
 MP_IRecv            20536                  59681.
 -------------------------------------------------------------------------------


 -------------------------------------------------------------------------------
 -                                                                             -
 -                           R E F E R E N C E S                               -
 -                                                                             -
 -------------------------------------------------------------------------------
 
 CP2K version 9.1, the CP2K developers group (2021).
 CP2K is freely available from https://www.cp2k.org/ .

 Kuehne,Thomas D.; Iannuzzi,Marcella; Del Ben,Mauro;
 Rybkin,Vladimir V.; Seewald,Patrick; Stein,Frederick; Laino,Teodoro;
 Khaliullin,Rustam Z.; Schuett,Ole; Schiffmann,Florian; Golze,Dorothea;
 Wilhelm,Jan; Chulkov,Sergey; Bani-Hashemian,Mohammad Hossein;
 Weber,Valery; Borstnik,Urban; Taillefumier,Mathieu;
 Jakobovits,Alice Shoshana; Lazzaro,Alfio; Pabst,Hans; Mueller,Tiziano;
 Schade,Robert; Guidon,Manuel; Andermatt,Samuel; Holmberg,Nico;
 Schenter,Gregory K.; Hehn,Anna; Bussy,Augustin; Belleflamme,Fabian;
 Tabacchi,Gloria; Gloess,Andreas; Lass,Michael; Bethune,Iain;
 Mundy,Christopher J.; Plessl,Christian; Watkins,Matt;
 VandeVondele,Joost; Krack,Matthias; Hutter,Juerg. 
 The Journal of Chemical Physics, 152 (19), (2020). 
 CP2K: An electronic structure and molecular dynamics software package -
 Quickstep: Efficient and accurate electronic structure calculations.
 https://doi.org/10.1063/5.0007045

 Schuett, Ole; Messmer, Peter; Hutter, Juerg; VandeVondele, Joost. 
 Electronic Structure Calculations on Graphics Processing Units, John
 Wiley & Sons, Ltd, 173-190 (2016). 
 GPU-Accelerated Sparse Matrix-Matrix Multiplication for
 Linear Scaling Density Functional Theory.
 https://doi.org/10.1002/9781118670712.ch8

 Heinecke, A; Henry, G; Hutchinson, M; Pabst, H. 
 Proceedings of Intl. Supercomputing Conference, 981-991 (2016). 
 LIBXSMM: Accelerating Small Matrix Multiplications
 by Runtime Code Generation.
 https://doi.org/10.1109/SC.2016.83

 Borstnik, U; VandeVondele, J; Weber, V; Hutter, J. 
 PARALLEL COMPUTING, 40 (5-6), 47-58 (2014). 
 Sparse matrix multiplication: The distributed block-compressed sparse
 row library.
 https://doi.org/10.1016/j.parco.2014.03.012

 Hutter, J; Iannuzzi, M; Schiffmann, F; VandeVondele, J. 
 WIREs Comput Mol Sci., 4 (1), 15-25 (2014). 
 CP2K: atomistic simulations of condensed matter systems.
 https://doi.org/10.1002/wcms.1159

 Marek, A; Blum, V; Johanni, R; Havu, V; Lang, B; Auckenthaler, T;
 Heinecke, A; Bungartz, H; Lederer, H. 
 Journal of Physics: Condensed Matter, 26 (21), (2014). 
 The ELPA library: scalable parallel eigenvalue solutions for
 electronic structure
 theory and computational science.
 https://doi.org/10.1088/0953-8984/26/21/213201

 Krack, M. 
 THEORETICAL CHEMISTRY ACCOUNTS, 114 (1-3), 145-152 (2005). 
 Pseudopotentials for H to Kr optimized for gradient-corrected
 exchange-correlation functionals.
 https://doi.org/10.1007/s00214-005-0655-y

 VandeVondele, J; Krack, M; Mohamed, F; Parrinello, M; Chassaing, T;
 Hutter, J. COMPUTER PHYSICS COMMUNICATIONS, 167 (2), 103-128 (2005). 
 QUICKSTEP: Fast and accurate density functional calculations using a
 mixed Gaussian and plane waves approach.
 https://doi.org/10.1016/j.cpc.2004.12.014

 Frigo, M; Johnson, SG. 
 PROCEEDINGS OF THE IEEE, 93 (2), 216-231 (2005). 
 The design and implementation of FFTW3.
 https://doi.org/10.1109/JPROC.2004.840301

 VandeVondele, J; Hutter, J. 
 JOURNAL OF CHEMICAL PHYSICS, 118 (10), 4365-4369 (2003). 
 An efficient orbital transformation method for electronic structure
 calculations.
 https://doi.org/10.1063/1.1543154

 Hartwigsen, C; Goedecker, S; Hutter, J. 
 PHYSICAL REVIEW B, 58 (7), 3641-3662 (1998). 
 Relativistic separable dual-space Gaussian pseudopotentials from H to Rn.
 https://doi.org/10.1103/PhysRevB.58.3641

 Lippert, G; Hutter, J; Parrinello, M. 
 MOLECULAR PHYSICS, 92 (3), 477-487 (1997). 
 A hybrid Gaussian and plane wave density functional scheme.
 https://doi.org/10.1080/002689797170220

 Goedecker, S; Teter, M; Hutter, J. 
 PHYSICAL REVIEW B, 54 (3), 1703-1710 (1996). 
 Separable dual-space Gaussian pseudopotentials.
 https://doi.org/10.1103/PhysRevB.54.1703


 -------------------------------------------------------------------------------
 -                                                                             -
 -                                T I M I N G                                  -
 -                                                                             -
 -------------------------------------------------------------------------------
 SUBROUTINE                       CALLS  ASD         SELF TIME        TOTAL TIME
                                MAXIMUM       AVERAGE  MAXIMUM  AVERAGE  MAXIMUM
 CP2K                                 1  1.0    0.398    0.400   43.877   43.879
 qs_mol_dyn_low                       1  2.0    0.003    0.003   43.089   43.109
 qs_forces                           11  3.9    0.001    0.002   42.763   42.763
 qs_energies                         11  4.9    0.001    0.001   39.967   39.980
 scf_env_do_scf                      11  5.9    0.001    0.030   35.937   35.938
 scf_env_do_scf_inner_loop          106  6.5    0.002    0.006   33.241   33.241
 velocity_verlet                     10  3.0    0.001    0.001   24.149   24.166
 rebuild_ks_matrix                  117  8.3    0.000    0.000   14.866   15.079
 qs_ks_build_kohn_sham_matrix       117  9.3    0.010    0.013   14.866   15.079
 qs_ks_update_qs_env                117  7.6    0.001    0.001   13.061   13.255
 qs_rho_update_rho                  117  7.6    0.001    0.001   12.841   12.872
 calculate_rho_elec                 117  8.6    0.029    0.034   12.841   12.872
 sum_up_and_integrate               117 10.3    0.041    0.048   12.733   12.742
 integrate_v_rspace                 117 11.3    0.002    0.003   12.692   12.702
 dbcsr_multiply_generic            2169 12.4    0.095    0.103   10.044   10.418
 qs_scf_new_mos                     106  7.5    0.001    0.001    9.983   10.244
 qs_scf_loop_do_ot                  106  8.5    0.001    0.001    9.982   10.244
 ot_scf_mini                        106  9.5    0.002    0.003    9.021    9.162
 rs_pw_transfer                     958 11.9    0.005    0.006    7.877    8.601
 grid_collocate_task_list           117  9.6    6.338    7.388    6.338    7.388
 density_rs2pw                      117  9.6    0.003    0.004    6.101    6.736
 grid_integrate_task_list           117 12.3    6.373    6.626    6.373    6.626
 multiply_cannon                   2169 13.4    0.163    0.180    5.307    6.139
 mp_waitany                       20536 13.8    5.191    5.918    5.191    5.918
 rs_pw_transfer_RS2PW_140           128 11.5    0.288    0.318    4.988    5.720
 multiply_cannon_loop              2169 14.4    0.112    0.145    4.431    5.340
 ot_mini                            106 10.5    0.001    0.001    4.859    5.009
 mp_alltoall_d11v                  2114 13.8    3.881    4.340    3.881    4.340
 rs_gather_matrices                 117 12.3    0.050    0.057    3.450    3.884
 qs_ot_get_derivative               106 11.5    0.001    0.001    3.246    3.389
 multiply_cannon_multrec          13014 15.4    2.102    3.138    2.113    3.149
 mp_waitall_1                    157134 16.3    2.073    2.943    2.073    2.943
 potential_pw2rs                    117 12.3    0.010    0.013    2.845    2.854
 make_m2s                          4338 13.4    0.067    0.074    2.573    2.785
 init_scf_loop                       11  6.9    0.000    0.000    2.645    2.646
 qs_ot_get_p                        117 10.4    0.001    0.002    2.415    2.627
 init_scf_run                        11  5.9    0.000    0.001    2.559    2.559
 scf_env_initial_rho_setup           11  6.9    0.000    0.001    2.558    2.559
 make_images                       4338 14.4    0.176    0.202    1.976    2.155
 multiply_cannon_metrocomm3       13014 15.4    0.037    0.044    0.857    2.092
 pw_transfer                       1415 11.6    0.052    0.057    1.956    1.978
 fft_wrap_pw1pw2                   1181 12.6    0.004    0.005    1.888    1.906
 wfi_extrapolate                     11  7.9    0.001    0.001    1.875    1.875
 qs_ks_update_qs_env_forces          11  4.9    0.000    0.000    1.854    1.871
 mp_sum_l                         10572 13.2    1.213    1.843    1.213    1.843
 mp_isend_dv                      43906 15.5    1.133    1.698    1.133    1.698
 fft3d_ps                          1181 14.6    0.632    0.700    1.647    1.672
 ot_diis_step                       106 11.5    0.018    0.018    1.574    1.574
 fft_wrap_pw1pw2_140                479 13.2    0.076    0.088    1.491    1.519
 apply_preconditioner_dbcsr         117 12.6    0.000    0.000    1.343    1.512
 apply_single                       117 13.6    0.000    0.000    1.343    1.512
 rs_pw_transfer_PW2RS_140           128 13.9    0.234    0.256    1.301    1.328
 qs_energies_init_hamiltonians       11  5.9    0.000    0.000    1.284    1.284
 multiply_cannon_metrocomm4       10845 15.4    0.038    0.044    0.733    1.267
 qs_ot_get_derivative_diag           49 12.0    0.001    0.001    1.173    1.246
 calculate_dm_sparse                117  9.5    0.000    0.001    1.103    1.236
 qs_ot_p2m_diag                      50 11.0    0.017    0.025    1.170    1.181
 mp_sum_d                          4089 12.0    0.886    1.168    0.886    1.168
 qs_ot_get_derivative_taylor         57 13.0    0.001    0.001    0.989    1.062
 multiply_cannon_metrocomm1       13014 15.4    0.039    0.049    0.438    1.022
 make_images_data                  4338 15.4    0.045    0.050    0.845    1.013
 cp_dbcsr_syevd                      50 12.0    0.003    0.003    0.998    0.999
 prepare_preconditioner              11  7.9    0.000    0.000    0.980    0.997
 make_preconditioner                 11  8.9    0.000    0.001    0.980    0.997
 rs_grid_zero                       256 14.8    0.936    0.985    0.936    0.985
 hybrid_alltoall_any               4491 16.3    0.072    0.305    0.754    0.969
 mp_alltoall_z22v                  1181 16.6    0.890    0.954    0.890    0.954
 cp_fm_diag_elpa                     50 13.0    0.000    0.000    0.921    0.922
 make_full_inverse_cholesky          11  9.9    0.000    0.000    0.888    0.912
 qs_env_update_s_mstruct             11  6.9    0.000    0.000    0.842    0.892
 -------------------------------------------------------------------------------

 The number of warnings for this run is : 1
 
 -------------------------------------------------------------------------------
  **** **** ******  **  PROGRAM ENDED AT                 2023-08-03 14:09:20.963
 ***** ** ***  *** **   PROGRAM RAN ON                                   r1i0n28
 **    ****   ******    PROGRAM RAN BY                             mrnuff-cirrus
 ***** **    ** ** **   PROGRAM PROCESS ID                               3770385
  **** **  *******  **  PROGRAM STOPPED IN /mnt/lustre/indy2lfs/work/tc047/tc047
                                           /mrnuff-cirrus/cp2k/nuff-benchmarks/H
                                           2O-64-8node
