 DBCSR| CPU Multiplication driver                                           XSMM
 DBCSR| Multrec recursion limit                                              512
 DBCSR| Multiplication stack size                                           1000
 DBCSR| Maximum elements for images                                    UNLIMITED
 DBCSR| Multiplicative factor virtual images                                   1
 DBCSR| Use multiplication densification                                       T
 DBCSR| Multiplication size stacks                                             3
 DBCSR| Use memory pool for CPU allocation                                     F
 DBCSR| Number of 3D layers                                               SINGLE
 DBCSR| Use MPI memory allocation                                              F
 DBCSR| Use RMA algorithm                                                      F
 DBCSR| Use Communication thread                                               T
 DBCSR| Communication thread load                                             87
 DBCSR| MPI: My node id                                                        0
 DBCSR| MPI: Number of nodes                                                  72
 DBCSR| OMP: Current number of threads                                         1
 DBCSR| OMP: Max number of threads                                             1
 DBCSR| Split modifier for TAS multiplication algorithm                  1.0E+00


  **** **** ******  **  PROGRAM STARTED AT               2023-08-03 15:36:37.836
 ***** ** ***  *** **   PROGRAM STARTED ON                               r1i0n27
 **    ****   ******    PROGRAM STARTED BY                         mrnuff-cirrus
 ***** **    ** ** **   PROGRAM PROCESS ID                               1566619
  **** **  *******  **  PROGRAM STARTED IN /mnt/lustre/indy2lfs/work/tc047/tc047
                                           /mrnuff-cirrus/cp2k/nuff-benchmarks/f
                                           ayalite/2-node

 CP2K| version string:                                          CP2K version 9.1
 CP2K| source code revision number:                                  git:d8d7100
 CP2K| cp2kflags: omp fftw3 libxc elpa parallel mpi3 scalapack xsmm plumed2 spgl
 CP2K|            ib mkl
 CP2K| is freely available from                            https://www.cp2k.org/
 CP2K| Program compiled at                           Wed Aug 2 15:51:15 BST 2023
 CP2K| Program compiled on                                         cirrus-login2
 CP2K| Program compiled for                                         Cirrus-intel
 CP2K| Data directory path    /work/tc047/tc047/mrnuff-cirrus/cp2k/cp2k-9.1/data
 CP2K| Input file name        /work/tc047/tc047/mrnuff-cirrus/cp2k/benchmarks/Fa
 
 GLOBAL| Force Environment number                                              1
 GLOBAL| Basis set file name                                           BASIS_SET
 GLOBAL| Potential file name                                           POTENTIAL
 GLOBAL| MM Potential file name                                     MM_POTENTIAL
 GLOBAL| Coordinate file name                                      __STD_INPUT__
 GLOBAL| Method name                                                        CP2K
 GLOBAL| Project name                                         fayalite_pedone_md
 GLOBAL| Run type                                                             MD
 GLOBAL| FFT library                                                       FFTW3
 GLOBAL| Diagonalization library                                            ELPA
 GLOBAL| Minimum number of eigenvectors for ELPA usage                        16
 GLOBAL| Orthonormality check for eigenvectors                          DISABLED
 GLOBAL| Matrix multiplication library                                 ScaLAPACK
 GLOBAL| All-to-all communication in single precision                          F
 GLOBAL| FFTs using library dependent lengths                                  F
 GLOBAL| Grid backend                                                       AUTO
 GLOBAL| Global print level                                                  LOW
 GLOBAL| MPI I/O enabled                                                       T
 GLOBAL| Total number of message passing processes                            72
 GLOBAL| Number of threads for this process                                    1
 GLOBAL| This output is from process                                           0
 GLOBAL| Stack size for threads created by OpenMP (OMP_STACKSIZE)        default
 GLOBAL| CPU model name                Intel(R) Xeon(R) CPU E5-2695 v4 @ 2.10GHz
 GLOBAL| CPUID                                                              1002

 MEMORY| system memory details [Kb]
 MEMORY|                        rank 0           min           max       average
 MEMORY| MemTotal            263585924     263585924     263585924     263585924
 MEMORY| MemFree             253153756     253153756     253282176     253217934
 MEMORY| Buffers                    64            64            64            64
 MEMORY| Cached                 419776        419776        426368        423072
 MEMORY| Slab                  1618772       1558900       1618772       1588836
 MEMORY| SReclaimable           114928         98192        114928        106560
 MEMORY| MemLikelyFree       253688524     253688524     253806800     253747630



                      ************* ******** ***********   
                     ************* **********************  
                     ****     **** ****      ***********   
                     ******** ****  *******     ****       
                     *******  ****   *******   ****        
                     ****     ****       ****  ****        
                     ****     **** **********  ****        
                      ****     **** ********    ****       
                     FRONTIERS IN SIMULATION TECHNOLOGY    
                                                           
                        C.J. Mundy, S. Balasubramanian,    
                     Ken Bagchi, J. Hutter, Ari Seitsonen  
                      IFW Kuo, T. Laino, J. VandeVondele   
                                 Version 1.0               

                                                           


 EWALD| Summation is done by:                                               SPME
 EWALD| Alpha parameter [       ANGSTROM^-1]                              0.3500
 EWALD| Real Space Cutoff [          ANGSTROM]                            9.6398
 EWALD| G-space max. Miller index                         15        33        19
 EWALD| Spline interpolation order                                             6
 
 GENERATE|  Preliminary Number of Bonds generated:                             0
 GENERATE|  Achieved consistency in connectivity generation.
 CHARGE_INFO| Total Charge of the Classical System:                     0.000000
 
 FORCEFIELD| WARNING: A non Critical ForceField parameter is missing! CP2K GOES!
 FORCEFIELD| Non critical parameters are:Urey-Bradley,Torsions,Impropers, Opbends and 1-4
 FORCEFIELD| All missing parameters will not contribute to the potential energy!
 FORCEFIELD| Activate the print key FF_INFO to have a list of missing parameters
 

 SPLINE_INFO| Generating 6 splines for NONBONDED14 interactions 
              Due to 3 different atomic kinds
  ...1  ...2  ...3  ...4  ...5  ...6
 SPLINE_INFO| Number of unique splines computed:            1
 SPLINE_INFO| Done
 
 FORCEFIELD| WARNING: A non Critical ForceField parameter is missing! CP2K GOES!
 FORCEFIELD| Non critical parameters are:Urey-Bradley,Torsions,Impropers, Opbends and 1-4
 FORCEFIELD| All missing parameters will not contribute to the potential energy!
 
 FORCEFIELD| Missing Spline_Non_Bond_En(  FE,  FE)                              
                                                                                
                                                                                
 
 FORCEFIELD| WARNING: Ignoring missing critical FF parameters! CP2K GOES!
 FORCEFIELD| Critical parameters are: Bonds, Bends and Charges
 FORCEFIELD| All missing parameters will not contribute to the potential energy!

 SPLINE_INFO| Generating 6 splines for NONBONDED interactions 
              Due to 3 different atomic kinds
  ...1  ...2  ...3  ...4  ...5  ...6
 SPLINE_INFO| Number of unique splines computed:            4
 SPLINE_INFO| Done
 
 MD_PAR| Molecular dynamics protocol (MD input parameters)
 MD_PAR| Ensemble type                                                     NPT_I
 MD_PAR| Number of time steps                                               1000
 MD_PAR| Time step [fs]                                                 2.000000
 MD_PAR| Temperature [K]                                              300.000000
 MD_PAR| Temperature tolerance [K]                                      0.000000
 MD_PAR| Pressure [bar]                                                 1.000000
 MD_PAR| Barostat time constant [fs]                                 1000.000000
 MD_PAR| Print MD information every                                    1 step(s)
 MD_PAR| File type   Print frequency [steps]                          File names
 MD_PAR| Coordinates          1                     fayalite_pedone_md-pos-1.xyz
 MD_PAR| Cell                 1                        fayalite_pedone_md-1.cell
 MD_PAR| Velocities           1                     fayalite_pedone_md-vel-1.xyz
 MD_PAR| Energies             1                        fayalite_pedone_md-1.ener
 MD_PAR| Dump                20                     fayalite_pedone_md-1.restart

 ROT| Rotational analysis information
 ROT| Principal axes and moments of inertia [a.u.]
 ROT|                           1                   2                   3
 ROT| Eigenvalues      2.66668640286E+12   5.88449619572E+12   6.49421282267E+12
 ROT|      x             -0.000672185678      0.003504948255      0.999993631732
 ROT|      y             -0.999997976341     -0.001898520187     -0.000665534341
 ROT|      z             -0.001896175433      0.999992055448     -0.003506217321
 ROT| Number of rotovibrational vectors                                        6

 DOF| Calculation of degrees of freedom
 DOF| Number of atoms                                                      28000
 DOF| Number of intramolecular constraints                                     0
 DOF| Number of intermolecular constraints                                     0
 DOF| Invariants (translations + rotations)                                    3
 DOF| Degrees of freedom                                                   83997

 DOF| Restraints information
 DOF| Number of intramolecular restraints                                      0
 DOF| Number of intermolecular restraints                                      0

 THERMOSTAT| Thermostat information for PARTICLES
 THERMOSTAT| Type of thermostat                               Nose-Hoover-Chains
 THERMOSTAT| Nose-Hoover-Chain length                                          3
 THERMOSTAT| Nose-Hoover-Chain time constant [fs]                    1000.000000
 THERMOSTAT| Order of Yoshida integrator                                       3
 THERMOSTAT| Number of multiple time steps                                     2
 THERMOSTAT| Initial potential energy                         0.000000000000E+00
 THERMOSTAT| Initial kinetic energy                           0.475022301493E-03
 THERMOSTAT| End of thermostat information for PARTICLES

 THERMOSTAT| Thermostat information for BAROSTAT
 THERMOSTAT| Type of thermostat                               Nose-Hoover-Chains
 THERMOSTAT| Nose-Hoover-Chain length                                          3
 THERMOSTAT| Nose-Hoover-Chain time constant [fs]                    1000.000000
 THERMOSTAT| Order of Yoshida integrator                                       3
 THERMOSTAT| Number of multiple time steps                                     2
 THERMOSTAT| Initial potential energy                         0.000000000000E+00
 THERMOSTAT| Initial kinetic energy                           0.475022301493E-03
 THERMOSTAT| End of thermostat information for BAROSTAT

 MD_VEL| Velocities initialization
 MD_VEL| Initial temperature [K]                                      300.000000
 MD_VEL| COM velocity            -0.0000000000     0.0000000000    -0.0000000000

 ENERGY| Total FORCE_EVAL ( FIST ) energy [a.u.]:         -12704.580765675418661

 MD_INI| MD initialization
 MD_INI| Potential energy [hartree]                          -0.127045807657E+05
 MD_INI| Kinetic energy [hartree]                             0.399004482585E+02
 MD_INI| Temperature [K]                                              300.000000
 MD_INI| Barostat temperature [K]                                     300.000000
 MD_INI| Pressure [bar]                                      -4.009663426332E+04
 MD_INI| Cell volume [bohr^3]                                 2.074602268441E+06
 MD_INI| Cell volume [ang^3]                                  3.074243345372E+05
 MD_INI| Cell lengths [bohr]      9.10753510E+01  1.98020622E+02  1.15033299E+02
 MD_INI| Cell lengths [ang]       4.81950000E+01  1.04788000E+02  6.08730000E+01
 MD_INI| Cell angles [deg]        9.00000000E+01  9.00000000E+01  9.00000000E+01

 ENERGY| Total FORCE_EVAL ( FIST ) energy [a.u.]:         -12705.386302296765280

 MD| ***************************************************************************
 MD| Step number                                                               1
 MD| Time [fs]                                                          2.000000
 MD| Conserved quantity [hartree]                            -0.126647050297E+05
 MD| ---------------------------------------------------------------------------
 MD|                                          Instantaneous             Averages
 MD| CPU time per MD step [s]                     10.696195            10.696195
 MD| Energy drift per atom [K]          -0.374291665422E+00   0.000000000000E+00
 MD| Potential energy [hartree]         -0.127053863023E+05  -0.127053863023E+05
 MD| Kinetic energy [hartree]            0.406496194293E+02   0.406496194293E+02
 MD| Temperature [K]                             305.632803           305.632803
 MD| Pressure [bar]                     -3.765629881787E+04  -3.765629881787E+04
 MD| Barostat temperature [K]            1.456432255336E+04   1.456432255336E+04
 MD| Cell volume [bohr^3]                2.074427052056E+06   2.074427052056E+06
 MD| Cell volume [ang^3]                 3.073983701481E+05   3.073983701481E+05
 MD| ---------------------------------------------------------------------------
 MD| Cell lengths [bohr]          9.10727869E+01  1.98015047E+02  1.15030060E+02
 MD| Cell lengths [ang]           4.81936431E+01  1.04785050E+02  6.08712862E+01
 MD| Average cell lengths [bohr]  9.10727869E+01  1.98015047E+02  1.15030060E+02
 MD| Average cell lengths [ang]   4.81936431E+01  1.04785050E+02  6.08712862E+01
 MD| ***************************************************************************

 ENERGY| Total FORCE_EVAL ( FIST ) energy [a.u.]:         -12707.328189550573370

 MD| ***************************************************************************
 MD| Step number                                                               2
 MD| Time [fs]                                                          4.000000
 MD| Conserved quantity [hartree]                            -0.126647915390E+05
 MD| ---------------------------------------------------------------------------
 MD|                                          Instantaneous             Averages
 MD| CPU time per MD step [s]                      9.872786            10.284491
 MD| Energy drift per atom [K]          -0.134991510433E+01  -0.674957552165E+00
 MD| Potential energy [hartree]         -0.127073281896E+05  -0.127063572459E+05
 MD| Kinetic energy [hartree]            0.424568146408E+02   0.415532170350E+02
 MD| Temperature [K]                             319.220584           312.426693
 MD| Pressure [bar]                     -3.044671021152E+04  -3.405150451469E+04
 MD| Barostat temperature [K]            4.452672795602E+04   2.954552525469E+04
 MD| Cell volume [bohr^3]                2.074003873136E+06   2.074215462596E+06
 MD| Cell volume [ang^3]                 3.073356615027E+05   3.073670158254E+05
 MD| ---------------------------------------------------------------------------
 MD| Cell lengths [bohr]          9.10665936E+01  1.98001581E+02  1.15022238E+02
 MD| Cell lengths [ang]           4.81903658E+01  1.04777924E+02  6.08671467E+01
 MD| Average cell lengths [bohr]  9.10696902E+01  1.98008314E+02  1.15026149E+02
 MD| Average cell lengths [ang]   4.81920045E+01  1.04781487E+02  6.08692165E+01
 MD| ***************************************************************************

 ENERGY| Total FORCE_EVAL ( FIST ) energy [a.u.]:         -12709.102642918616766

 MD| ***************************************************************************
 MD| Step number                                                               3
 MD| Time [fs]                                                          6.000000
 MD| Conserved quantity [hartree]                            -0.126648940891E+05
 MD| ---------------------------------------------------------------------------
 MD|                                          Instantaneous             Averages
 MD| CPU time per MD step [s]                      7.221480             9.263487
 MD| Energy drift per atom [K]          -0.250644094622E+01  -0.128545201685E+01
 MD| Potential energy [hartree]         -0.127091026429E+05  -0.127072723783E+05
 MD| Kinetic energy [hartree]            0.440773726195E+02   0.423946022298E+02
 MD| Temperature [K]                             331.405094           318.752827
 MD| Pressure [bar]                     -1.896728070444E+04  -2.902342991128E+04
 MD| Barostat temperature [K]            7.628020301830E+04   4.512375117589E+04
 MD| Cell volume [bohr^3]                2.073381012326E+06   2.073937312506E+06
 MD| Cell volume [ang^3]                 3.072433630546E+05   3.073257982351E+05
 MD| ---------------------------------------------------------------------------
 MD| Cell lengths [bohr]          9.10574764E+01  1.97981758E+02  1.15010722E+02
 MD| Cell lengths [ang]           4.81855412E+01  1.04767434E+02  6.08610530E+01
 MD| Average cell lengths [bohr]  9.10656189E+01  1.97999462E+02  1.15021007E+02
 MD| Average cell lengths [ang]   4.81898500E+01  1.04776803E+02  6.08664953E+01
 MD| ***************************************************************************

 ENERGY| Total FORCE_EVAL ( FIST ) energy [a.u.]:         -12709.190741668780902

 MD| ***************************************************************************
 MD| Step number                                                               4
 MD| Time [fs]                                                          8.000000
 MD| Conserved quantity [hartree]                            -0.126649626824E+05
 MD| ---------------------------------------------------------------------------
 MD|                                          Instantaneous             Averages
 MD| CPU time per MD step [s]                      0.702819             7.123320
 MD| Energy drift per atom [K]          -0.328001280309E+01  -0.178409221341E+01
 MD| Potential energy [hartree]         -0.127091907417E+05  -0.127077519691E+05
 MD| Kinetic energy [hartree]            0.440678643574E+02   0.428129177617E+02
 MD| Temperature [K]                             331.333604           321.898021
 MD| Pressure [bar]                     -4.146243191020E+03  -2.280413323121E+04
 MD| Barostat temperature [K]            9.362332514767E+04   5.724864466884E+04
 MD| Cell volume [bohr^3]                2.072635204071E+06   2.073611785397E+06
 MD| Cell volume [ang^3]                 3.071328456749E+05   3.072775600951E+05
 MD| ---------------------------------------------------------------------------
 MD| Cell lengths [bohr]          9.10465571E+01  1.97958017E+02  1.14996931E+02
 MD| Cell lengths [ang]           4.81797629E+01  1.04754871E+02  6.08537547E+01
 MD| Average cell lengths [bohr]  9.10608535E+01  1.97989101E+02  1.15014988E+02
 MD| Average cell lengths [ang]   4.81873283E+01  1.04771320E+02  6.08633102E+01
 MD| ***************************************************************************

 ENERGY| Total FORCE_EVAL ( FIST ) energy [a.u.]:         -12706.628753329036044

 MD| ***************************************************************************
 MD| Step number                                                               5
 MD| Time [fs]                                                         10.000000
 MD| Conserved quantity [hartree]                            -0.126649568565E+05
 MD| ---------------------------------------------------------------------------
 MD|                                          Instantaneous             Averages
 MD| CPU time per MD step [s]                      1.339172             5.966490
 MD| Energy drift per atom [K]          -0.321431073950E+01  -0.207013591863E+01
 MD| Potential energy [hartree]         -0.127066287533E+05  -0.127075273260E+05
 MD| Kinetic energy [hartree]            0.415216669486E+02   0.425546675991E+02
 MD| Temperature [K]                             312.189477           319.956312
 MD| Pressure [bar]                      1.259242554315E+04  -1.572482147634E+04
 MD| Barostat temperature [K]            8.609959636528E+04   6.301883500813E+04
 MD| Cell volume [bohr^3]                2.071865266256E+06   2.073262481569E+06
 MD| Cell volume [ang^3]                 3.070187526635E+05   3.072257986088E+05
 MD| ---------------------------------------------------------------------------
 MD| Cell lengths [bohr]          9.10352817E+01  1.97933501E+02  1.14982689E+02
 MD| Cell lengths [ang]           4.81737963E+01  1.04741898E+02  6.08462185E+01
 MD| Average cell lengths [bohr]  9.10557391E+01  1.97977981E+02  1.15008528E+02
 MD| Average cell lengths [ang]   4.81846219E+01  1.04765435E+02  6.08598918E+01
 MD| ***************************************************************************

 ENERGY| Total FORCE_EVAL ( FIST ) energy [a.u.]:         -12701.614504323573783

 MD| ***************************************************************************
 MD| Step number                                                               6
 MD| Time [fs]                                                         12.000000
 MD| Conserved quantity [hartree]                            -0.126648709093E+05
 MD| ---------------------------------------------------------------------------
 MD|                                          Instantaneous             Averages
 MD| CPU time per MD step [s]                      2.946580             5.463172
 MD| Energy drift per atom [K]          -0.224502667651E+01  -0.209928437828E+01
 MD| Potential energy [hartree]         -0.127016145043E+05  -0.127065418557E+05
 MD| Kinetic energy [hartree]            0.366394658279E+02   0.415688006373E+02
 MD| Temperature [K]                             275.481611           312.543862
 MD| Pressure [bar]                      2.936149411231E+04  -8.210435544899E+03
 MD| Barostat temperature [K]            5.580130018667E+04   6.181591253788E+04
 MD| Cell volume [bohr^3]                2.071182118433E+06   2.072915754380E+06
 MD| Cell volume [ang^3]                 3.069175206017E+05   3.071744189409E+05
 MD| ---------------------------------------------------------------------------
 MD| Cell lengths [bohr]          9.10252751E+01  1.97911744E+02  1.14970050E+02
 MD| Cell lengths [ang]           4.81685010E+01  1.04730384E+02  6.08395302E+01
 MD| Average cell lengths [bohr]  9.10506618E+01  1.97966942E+02  1.15002115E+02
 MD| Average cell lengths [ang]   4.81819350E+01  1.04759594E+02  6.08564982E+01
 MD| ***************************************************************************

 ENERGY| Total FORCE_EVAL ( FIST ) energy [a.u.]:         -12695.574868015277389

 MD| ***************************************************************************
 MD| Step number                                                               7
 MD| Time [fs]                                                         14.000000
 MD| Conserved quantity [hartree]                            -0.126647427656E+05
 MD| ---------------------------------------------------------------------------
 MD|                                          Instantaneous             Averages
 MD| CPU time per MD step [s]                      1.675881             4.922130
 MD| Energy drift per atom [K]          -0.799864966375E+00  -0.191365303372E+01
 MD| Potential energy [hartree]         -0.126955748680E+05  -0.127049751432E+05
 MD| Kinetic energy [hartree]            0.307850904874E+02   0.400282706158E+02
 MD| Temperature [K]                             231.464245           300.961060
 MD| Pressure [bar]                      4.401486416737E+04  -7.496784431458E+02
 MD| Barostat temperature [K]            1.893081691712E+04   5.568947030635E+04
 MD| Cell volume [bohr^3]                2.070695757190E+06   2.072598611924E+06
 MD| Cell volume [ang^3]                 3.068454493022E+05   3.071274232782E+05
 MD| ---------------------------------------------------------------------------
 MD| Cell lengths [bohr]          9.10181496E+01  1.97896252E+02  1.14961050E+02
 MD| Cell lengths [ang]           4.81647303E+01  1.04722186E+02  6.08347677E+01
 MD| Average cell lengths [bohr]  9.10460172E+01  1.97956843E+02  1.14996249E+02
 MD| Average cell lengths [ang]   4.81794772E+01  1.04754250E+02  6.08533939E+01
 MD| ***************************************************************************

 ENERGY| Total FORCE_EVAL ( FIST ) energy [a.u.]:         -12690.572119943080907

 MD| ***************************************************************************
 MD| Step number                                                               8
 MD| Time [fs]                                                         16.000000
 MD| Conserved quantity [hartree]                            -0.126646346162E+05
 MD| ---------------------------------------------------------------------------
 MD|                                          Instantaneous             Averages
 MD| CPU time per MD step [s]                      1.303811             4.469841
 MD| Energy drift per atom [K]           0.419808225833E+00  -0.162197037627E+01
 MD| Potential energy [hartree]         -0.126905721199E+05  -0.127031747653E+05
 MD| Kinetic energy [hartree]            0.259198152610E+02   0.382647136965E+02
 MD| Temperature [K]                             194.883640           287.701382
 MD| Pressure [bar]                      5.451466399185E+04   6.158364361229E+03
 MD| Barostat temperature [K]            3.922828920820E+01   4.873319005420E+04
 MD| Cell volume [bohr^3]                2.070501033754E+06   2.072336414653E+06
 MD| Cell volume [ang^3]                 3.068165942664E+05   3.070885696518E+05
 MD| ---------------------------------------------------------------------------
 MD| Cell lengths [bohr]          9.10152964E+01  1.97890048E+02  1.14957447E+02
 MD| Cell lengths [ang]           4.81632205E+01  1.04718903E+02  6.08328607E+01
 MD| Average cell lengths [bohr]  9.10421771E+01  1.97948494E+02  1.14991398E+02
 MD| Average cell lengths [ang]   4.81774451E+01  1.04749831E+02  6.08508272E+01
 MD| ***************************************************************************

 ENERGY| Total FORCE_EVAL ( FIST ) energy [a.u.]:         -12688.341012320797745

 MD| ***************************************************************************
 MD| Step number                                                               9
 MD| Time [fs]                                                         18.000000
 MD| Conserved quantity [hartree]                            -0.126645982279E+05
 MD| ---------------------------------------------------------------------------
 MD|                                          Instantaneous             Averages
 MD| CPU time per MD step [s]                      0.180622             3.993261
 MD| Energy drift per atom [K]           0.830182846189E+00  -0.134950890711E+01
 MD| Potential energy [hartree]         -0.126883410123E+05  -0.127015265705E+05
 MD| Kinetic energy [hartree]            0.236915946687E+02   0.366454782489E+02
 MD| Temperature [K]                             178.130290           275.526816
 MD| Pressure [bar]                      5.935620685602E+04   1.206923574954E+04
 MD| Barostat temperature [K]            2.088154044748E+04   4.563856232012E+04
 MD| Cell volume [bohr^3]                2.070664754641E+06   2.072150674651E+06
 MD| Cell volume [ang^3]                 3.068408551986E+05   3.070610458236E+05
 MD| ---------------------------------------------------------------------------
 MD| Cell lengths [bohr]          9.10176953E+01  1.97895264E+02  1.14960477E+02
 MD| Cell lengths [ang]           4.81644899E+01  1.04721664E+02  6.08344641E+01
 MD| Average cell lengths [bohr]  9.10394569E+01  1.97942579E+02  1.14987963E+02
 MD| Average cell lengths [ang]   4.81760057E+01  1.04746702E+02  6.08490091E+01
 MD| ***************************************************************************

 ENERGY| Total FORCE_EVAL ( FIST ) energy [a.u.]:         -12689.478124790612128

 MD| ***************************************************************************
 MD| Step number                                                              10
 MD| Time [fs]                                                         20.000000
 MD| Conserved quantity [hartree]                            -0.126646495964E+05
 MD| ---------------------------------------------------------------------------
 MD|                                          Instantaneous             Averages
 MD| CPU time per MD step [s]                      1.599310             3.753866
 MD| Energy drift per atom [K]           0.250865817657E+00  -0.118947143464E+01
 MD| Potential energy [hartree]         -0.126894781248E+05  -0.127003217259E+05
 MD| Kinetic energy [hartree]            0.246677031871E+02   0.354477007428E+02
 MD| Temperature [K]                             185.469369           266.521071
 MD| Pressure [bar]                      5.789750534569E+04   1.665206270915E+04
 MD| Barostat temperature [K]            8.921364068315E+04   4.999607015643E+04
 MD| Cell volume [bohr^3]                2.071216353070E+06   2.072057242493E+06
 MD| Cell volume [ang^3]                 3.069225936515E+05   3.070472006064E+05
 MD| ---------------------------------------------------------------------------
 MD| Cell lengths [bohr]          9.10257766E+01  1.97912835E+02  1.14970684E+02
 MD| Cell lengths [ang]           4.81687664E+01  1.04730962E+02  6.08398654E+01
 MD| Average cell lengths [bohr]  9.10380889E+01  1.97939605E+02  1.14986235E+02
 MD| Average cell lengths [ang]   4.81752817E+01  1.04745128E+02  6.08480947E+01
 MD| ***************************************************************************

 ENERGY| Total FORCE_EVAL ( FIST ) energy [a.u.]:         -12693.178695774277003

 MD| ***************************************************************************
 MD| Step number                                                              11
 MD| Time [fs]                                                         22.000000
 MD| Conserved quantity [hartree]                            -0.126647648996E+05
 MD| ---------------------------------------------------------------------------
 MD|                                          Instantaneous             Averages
 MD| CPU time per MD step [s]                      1.824382             3.578458
 MD| Energy drift per atom [K]          -0.104948506956E+01  -0.117674540145E+01
 MD| Potential energy [hartree]         -0.126931786958E+05  -0.126996723595E+05
 MD| Kinetic energy [hartree]            0.280843130043E+02   0.347783018575E+02
 MD| Temperature [K]                             211.157876           261.488054
 MD| Pressure [bar]                      5.048069443611E+04   1.972739286615E+04
 MD| Barostat temperature [K]            1.932591703180E+05   6.301998835293E+04
 MD| Cell volume [bohr^3]                2.072143521825E+06   2.072065086069E+06
 MD| Cell volume [ang^3]                 3.070599858842E+05   3.070483629044E+05
 MD| ---------------------------------------------------------------------------
 MD| Cell lengths [bohr]          9.10393570E+01  1.97942362E+02  1.14987836E+02
 MD| Cell lengths [ang]           4.81759528E+01  1.04746587E+02  6.08489423E+01
 MD| Average cell lengths [bohr]  9.10382042E+01  1.97939856E+02  1.14986380E+02
 MD| Average cell lengths [ang]   4.81753427E+01  1.04745260E+02  6.08481718E+01
 MD| ***************************************************************************

 ENERGY| Total FORCE_EVAL ( FIST ) energy [a.u.]:         -12697.598883016400578

 MD| ***************************************************************************
 MD| Step number                                                              12
 MD| Time [fs]                                                         24.000000
 MD| Conserved quantity [hartree]                            -0.126648937476E+05
 MD| ---------------------------------------------------------------------------
 MD|                                          Instantaneous             Averages
 MD| CPU time per MD step [s]                      1.267756             3.385900
 MD| Energy drift per atom [K]          -0.250258934615E+01  -0.128723239684E+01
 MD| Potential energy [hartree]         -0.126975988830E+05  -0.126994995698E+05
 MD| Kinetic energy [hartree]            0.321899809020E+02   0.345626084445E+02
 MD| Temperature [K]                             242.027213           259.866317
 MD| Pressure [bar]                      3.831644268339E+04   2.127648035092E+04
 MD| Barostat temperature [K]            3.049569590684E+05   8.318140257922E+04
 MD| Cell volume [bohr^3]                2.073393408121E+06   2.072175779573E+06
 MD| Cell volume [ang^3]                 3.072451999219E+05   3.070647659892E+05
 MD| ---------------------------------------------------------------------------
 MD| Cell lengths [bohr]          9.10576578E+01  1.97982153E+02  1.15010951E+02
 MD| Cell lengths [ang]           4.81856372E+01  1.04767643E+02  6.08611742E+01
 MD| Average cell lengths [bohr]  9.10398253E+01  1.97943380E+02  1.14988428E+02
 MD| Average cell lengths [ang]   4.81762006E+01  1.04747125E+02  6.08492553E+01
 MD| ***************************************************************************

 ENERGY| Total FORCE_EVAL ( FIST ) energy [a.u.]:         -12700.644769266316871

 MD| ***************************************************************************
 MD| Step number                                                              13
 MD| Time [fs]                                                         26.000000
 MD| Conserved quantity [hartree]                            -0.126649813731E+05
 MD| ---------------------------------------------------------------------------
 MD|                                          Instantaneous             Averages
 MD| CPU time per MD step [s]                      1.029510             3.204639
 MD| Energy drift per atom [K]          -0.349080047425E+01  -0.145673763356E+01
 MD| Potential energy [hartree]         -0.127006447693E+05  -0.126995876621E+05
 MD| Kinetic energy [hartree]            0.349955111278E+02   0.345959086509E+02
 MD| Temperature [K]                             263.121188           260.116692
 MD| Pressure [bar]                      2.318486488553E+04   2.142327916128E+04
 MD| Barostat temperature [K]            3.909106177831E+05   1.068528806718E+05
 MD| Cell volume [bohr^3]                2.074879385911E+06   2.072383749292E+06
 MD| Cell volume [ang^3]                 3.074653991090E+05   3.070955839215E+05
 MD| ---------------------------------------------------------------------------
 MD| Cell lengths [bohr]          9.10794060E+01  1.98029439E+02  1.15038421E+02
 MD| Cell lengths [ang]           4.81971458E+01  1.04792666E+02  6.08757103E+01
 MD| Average cell lengths [bohr]  9.10428700E+01  1.97950000E+02  1.14992274E+02
 MD| Average cell lengths [ang]   4.81778118E+01  1.04750629E+02  6.08512903E+01
 MD| ***************************************************************************

 ENERGY| Total FORCE_EVAL ( FIST ) energy [a.u.]:         -12700.838645619320232

 MD| ***************************************************************************
 MD| Step number                                                              14
 MD| Time [fs]                                                         28.000000
 MD| Conserved quantity [hartree]                            -0.126649918001E+05
 MD| ---------------------------------------------------------------------------
 MD|                                          Instantaneous             Averages
 MD| CPU time per MD step [s]                      2.130206             3.127894
 MD| Energy drift per atom [K]          -0.360839326254E+01  -0.161042732135E+01
 MD| Potential energy [hartree]         -0.127008386456E+05  -0.126996770181E+05
 MD| Kinetic energy [hartree]            0.350974284221E+02   0.346317314917E+02
 MD| Temperature [K]                             263.887475           260.386033
 MD| Pressure [bar]                      7.057652256192E+03   2.039716295377E+04
 MD| Barostat temperature [K]            4.259701404329E+05   1.296469706548E+05
 MD| Cell volume [bohr^3]                2.076492676303E+06   2.072677244078E+06
 MD| Cell volume [ang^3]                 3.077044640772E+05   3.071390753612E+05
 MD| ---------------------------------------------------------------------------
 MD| Cell lengths [bohr]          9.11030056E+01  1.98080750E+02  1.15068228E+02
 MD| Cell lengths [ang]           4.82096342E+01  1.04819818E+02  6.08914838E+01
 MD| Average cell lengths [bohr]  9.10471654E+01  1.97959339E+02  1.14997699E+02
 MD| Average cell lengths [ang]   4.81800848E+01  1.04755571E+02  6.08541613E+01
 MD| ***************************************************************************

 ENERGY| Total FORCE_EVAL ( FIST ) energy [a.u.]:         -12697.897088803141742

 MD| ***************************************************************************
 MD| Step number                                                              15
 MD| Time [fs]                                                         30.000000
 MD| Conserved quantity [hartree]                            -0.126649223813E+05
 MD| ---------------------------------------------------------------------------
 MD|                                          Instantaneous             Averages
 MD| CPU time per MD step [s]                      0.954671             2.983012
 MD| Energy drift per atom [K]          -0.282551079750E+01  -0.169143288642E+01
 MD| Potential energy [hartree]         -0.126978970888E+05  -0.126995583561E+05
 MD| Kinetic energy [hartree]            0.322285609062E+02   0.344715201193E+02
 MD| Temperature [K]                             242.317284           259.181450
 MD| Pressure [bar]                     -8.242480648561E+03   1.848785338028E+04
 MD| Barostat temperature [K]            4.027210981479E+05   1.478519124876E+05
 MD| Cell volume [bohr^3]                2.078116979090E+06   2.073039893079E+06
 MD| Cell volume [ang^3]                 3.079451609138E+05   3.071928143980E+05
 MD| ---------------------------------------------------------------------------
 MD| Cell lengths [bohr]          9.11267541E+01  1.98132385E+02  1.15098224E+02
 MD| Cell lengths [ang]           4.82222013E+01  1.04847143E+02  6.09073568E+01
 MD| Average cell lengths [bohr]  9.10524713E+01  1.97970876E+02  1.15004401E+02
 MD| Average cell lengths [ang]   4.81828926E+01  1.04761675E+02  6.08577077E+01
 MD| ***************************************************************************

 ENERGY| Total FORCE_EVAL ( FIST ) energy [a.u.]:         -12692.792589264656272

 MD| ***************************************************************************
 MD| Step number                                                              16
 MD| Time [fs]                                                         32.000000
 MD| Conserved quantity [hartree]                            -0.126648020901E+05
 MD| ---------------------------------------------------------------------------
 MD|                                          Instantaneous             Averages
 MD| CPU time per MD step [s]                      1.610565             2.897234
 MD| Energy drift per atom [K]          -0.146890729122E+01  -0.167752503672E+01
 MD| Potential energy [hartree]         -0.126927925893E+05  -0.126991354957E+05
 MD| Kinetic energy [hartree]            0.273198841112E+02   0.340245428688E+02
 MD| Temperature [K]                             205.410355           255.820757
 MD| Pressure [bar]                     -2.125886947679E+04   1.600368320171E+04
 MD| Barostat temperature [K]            3.324643681090E+05   1.593901909640E+05
 MD| Cell volume [bohr^3]                2.079643297780E+06   2.073452605873E+06
 MD| Cell volume [ang^3]                 3.081713380056E+05   3.072539721235E+05
 MD| ---------------------------------------------------------------------------
 MD| Cell lengths [bohr]          9.11490586E+01  1.98180881E+02  1.15126396E+02
 MD| Cell lengths [ang]           4.82340044E+01  1.04872805E+02  6.09222648E+01
 MD| Average cell lengths [bohr]  9.10585080E+01  1.97984001E+02  1.15012025E+02
 MD| Average cell lengths [ang]   4.81860871E+01  1.04768621E+02  6.08617425E+01
 MD| ***************************************************************************

 ENERGY| Total FORCE_EVAL ( FIST ) energy [a.u.]:         -12687.319076195273738

 MD| ***************************************************************************
 MD| Step number                                                              17
 MD| Time [fs]                                                         34.000000
 MD| Conserved quantity [hartree]                            -0.126646760789E+05
 MD| ---------------------------------------------------------------------------
 MD|                                          Instantaneous             Averages
 MD| CPU time per MD step [s]                      2.857463             2.894895
 MD| Energy drift per atom [K]          -0.477949580996E-01  -0.158165856151E+01
 MD| Potential energy [hartree]         -0.126873190762E+05  -0.126984404122E+05
 MD| Kinetic energy [hartree]            0.220899158607E+02   0.333225059860E+02
 MD| Temperature [K]                             166.087727           250.542343
 MD| Pressure [bar]                     -3.096930831130E+04   1.324056605389E+04
 MD| Barostat temperature [K]            2.383492433534E+05   1.640348411045E+05
 MD| Cell volume [bohr^3]                2.080982113996E+06   2.073895518115E+06
 MD| Cell volume [ang^3]                 3.083697300976E+05   3.073196049455E+05
 MD| ---------------------------------------------------------------------------
 MD| Cell lengths [bohr]          9.11686142E+01  1.98223400E+02  1.15151096E+02
 MD| Cell lengths [ang]           4.82443528E+01  1.04895305E+02  6.09353353E+01
 MD| Average cell lengths [bohr]  9.10649848E+01  1.97998083E+02  1.15020206E+02
 MD| Average cell lengths [ang]   4.81895145E+01  1.04776073E+02  6.08660715E+01
 MD| ***************************************************************************

 ENERGY| Total FORCE_EVAL ( FIST ) energy [a.u.]:         -12683.393028616594165

 MD| ***************************************************************************
 MD| Step number                                                              18
 MD| Time [fs]                                                         36.000000
 MD| Conserved quantity [hartree]                            -0.126645873570E+05
 MD| ---------------------------------------------------------------------------
 MD|                                          Instantaneous             Averages
 MD| CPU time per MD step [s]                      8.655000             3.214901
 MD| Energy drift per atom [K]           0.952781573691E+00  -0.144085633178E+01
 MD| Potential energy [hartree]         -0.126833930286E+05  -0.126976044464E+05
 MD| Kinetic energy [hartree]            0.183769934459E+02   0.324921997338E+02
 MD| Temperature [K]                             138.171331           244.299509
 MD| Pressure [bar]                     -3.674468630381E+04   1.046360758957E+04
 MD| Barostat temperature [K]            1.453261343237E+05   1.629954685056E+05
 MD| Cell volume [bohr^3]                2.082071235247E+06   2.074349724623E+06
 MD| Cell volume [ang^3]                 3.085311212138E+05   3.073869114048E+05
 MD| ---------------------------------------------------------------------------
 MD| Cell lengths [bohr]          9.11845163E+01  1.98257975E+02  1.15171181E+02
 MD| Cell lengths [ang]           4.82527678E+01  1.04913602E+02  6.09459640E+01
 MD| Average cell lengths [bohr]  9.10716255E+01  1.98012522E+02  1.15028593E+02
 MD| Average cell lengths [ang]   4.81930285E+01  1.04783714E+02  6.08705099E+01
 MD| ***************************************************************************

 ENERGY| Total FORCE_EVAL ( FIST ) energy [a.u.]:         -12682.375177351461389

 MD| ***************************************************************************
 MD| Step number                                                              19
 MD| Time [fs]                                                         38.000000
 MD| Conserved quantity [hartree]                            -0.126645641743E+05
 MD| ---------------------------------------------------------------------------
 MD|                                          Instantaneous             Averages
 MD| CPU time per MD step [s]                      0.178161             3.055072
 MD| Energy drift per atom [K]           0.121422793654E+01  -0.130111505450E+01
 MD| Potential energy [hartree]         -0.126823751774E+05  -0.126968029060E+05
 MD| Kinetic energy [hartree]            0.174852375189E+02   0.317023596172E+02
 MD| Temperature [K]                             131.466474           238.360928
 MD| Pressure [bar]                     -3.826340226778E+04   7.899028123396E+03
 MD| Barostat temperature [K]            7.185724393364E+04   1.581987198439E+05
 MD| Cell volume [bohr^3]                2.082879288358E+06   2.074798649030E+06
 MD| Cell volume [ang^3]                 3.086508623294E+05   3.074534351377E+05
 MD| ---------------------------------------------------------------------------
 MD| Cell lengths [bohr]          9.11963111E+01  1.98283620E+02  1.15186078E+02
 MD| Cell lengths [ang]           4.82590093E+01  1.04927172E+02  6.09538474E+01
 MD| Average cell lengths [bohr]  9.10781879E+01  1.98026790E+02  1.15036882E+02
 MD| Average cell lengths [ang]   4.81965012E+01  1.04791264E+02  6.08748961E+01
 MD| ***************************************************************************

 ENERGY| Total FORCE_EVAL ( FIST ) energy [a.u.]:         -12684.619533158946069

 MD| ***************************************************************************
 MD| Step number                                                              20
 MD| Time [fs]                                                         40.000000
 MD| Conserved quantity [hartree]                            -0.126646142476E+05
 MD| ---------------------------------------------------------------------------
 MD|                                          Instantaneous             Averages
 MD| CPU time per MD step [s]                      1.908473             2.997742
 MD| Energy drift per atom [K]           0.649517724674E+00  -0.120358341554E+01
 MD| Potential energy [hartree]         -0.126846195332E+05  -0.126961937373E+05
 MD| Kinetic energy [hartree]            0.197464050472E+02   0.311045618887E+02
 MD| Temperature [K]                             148.467543           233.866259
 MD| Pressure [bar]                     -3.544251557924E+04   5.731950938264E+03
 MD| Barostat temperature [K]            2.587435049993E+04   1.515825013767E+05
 MD| Cell volume [bohr^3]                2.083405990128E+06   2.075229016085E+06
 MD| Cell volume [ang^3]                 3.087289114782E+05   3.075172089547E+05
 MD| ---------------------------------------------------------------------------
 MD| Cell lengths [bohr]          9.12039974E+01  1.98300332E+02  1.15195787E+02
 MD| Cell lengths [ang]           4.82630768E+01  1.04936016E+02  6.09589848E+01
 MD| Average cell lengths [bohr]  9.10844783E+01  1.98040467E+02  1.15044827E+02
 MD| Average cell lengths [ang]   4.81998300E+01  1.04798502E+02  6.08791006E+01
 MD| ***************************************************************************

 ENERGY| Total FORCE_EVAL ( FIST ) energy [a.u.]:         -12689.351106405587416

 MD| ***************************************************************************
 MD| Step number                                                              21
 MD| Time [fs]                                                         42.000000
 MD| Conserved quantity [hartree]                            -0.126647232303E+05
 MD| ---------------------------------------------------------------------------
 MD|                                          Instantaneous             Averages
 MD| CPU time per MD step [s]                      5.668331             3.124913
 MD| Energy drift per atom [K]          -0.579552815232E+00  -0.117386767267E+01
 MD| Potential energy [hartree]         -0.126893511064E+05  -0.126958678977E+05
 MD| Kinetic energy [hartree]            0.244005316872E+02   0.307853223553E+02
 MD| Temperature [K]                             183.460583           231.465989
 MD| Pressure [bar]                     -2.842379867794E+04   4.105486670826E+03
 MD| Barostat temperature [K]            5.010601415799E+03   1.446028870929E+05
 MD| Cell volume [bohr^3]                2.083680509847E+06   2.075631468169E+06
 MD| Cell volume [ang^3]                 3.087695911031E+05   3.075768461999E+05
 MD| ---------------------------------------------------------------------------
 MD| Cell lengths [bohr]          9.12080031E+01  1.98309041E+02  1.15200846E+02
 MD| Cell lengths [ang]           4.82651965E+01  1.04940625E+02  6.09616621E+01
 MD| Average cell lengths [bohr]  9.10903605E+01  1.98053256E+02  1.15052257E+02
 MD| Average cell lengths [ang]   4.82029427E+01  1.04805269E+02  6.08830321E+01
 MD| ***************************************************************************

 ENERGY| Total FORCE_EVAL ( FIST ) energy [a.u.]:         -12694.899564965244281

 MD| ***************************************************************************
 MD| Step number                                                              22
 MD| Time [fs]                                                         44.000000
 MD| Conserved quantity [hartree]                            -0.126648562734E+05
 MD| ---------------------------------------------------------------------------
 MD|                                          Instantaneous             Averages
 MD| CPU time per MD step [s]                      0.199760             2.991952
 MD| Energy drift per atom [K]          -0.207996842389E+01  -0.121505407045E+01
 MD| Potential energy [hartree]         -0.126948995650E+05  -0.126958238826E+05
 MD| Kinetic energy [hartree]            0.298241323205E+02   0.307416318992E+02
 MD| Temperature [K]                             224.239077           231.137493
 MD| Pressure [bar]                     -1.762338982701E+04   3.117810466379E+03
 MD| Barostat temperature [K]            5.865438466541E+01   1.380326946970E+05
 MD| Cell volume [bohr^3]                2.083758640283E+06   2.076000885083E+06
 MD| Cell volume [ang^3]                 3.087811688390E+05   3.076315881380E+05
 MD| ---------------------------------------------------------------------------
 MD| Cell lengths [bohr]          9.12091430E+01  1.98311519E+02  1.15202286E+02
 MD| Cell lengths [ang]           4.82657997E+01  1.04941936E+02  6.09624240E+01
 MD| Average cell lengths [bohr]  9.10957597E+01  1.98064996E+02  1.15059076E+02
 MD| Average cell lengths [ang]   4.82057998E+01  1.04811482E+02  6.08866408E+01
 MD| ***************************************************************************

 ENERGY| Total FORCE_EVAL ( FIST ) energy [a.u.]:         -12699.256454282214690

 MD| ***************************************************************************
 MD| Step number                                                              23
 MD| Time [fs]                                                         46.000000
 MD| Conserved quantity [hartree]                            -0.126649649902E+05
 MD| ---------------------------------------------------------------------------
 MD|                                          Instantaneous             Averages
 MD| CPU time per MD step [s]                      0.158011             2.868737
 MD| Energy drift per atom [K]          -0.330603919844E+01  -0.130596646732E+01
 MD| Potential energy [hartree]         -0.126992564543E+05  -0.126959731249E+05
 MD| Kinetic energy [hartree]            0.340725322166E+02   0.308864536521E+02
 MD| Temperature [K]                             256.181575           232.226366
 MD| Pressure [bar]                     -3.826634267716E+03   2.815878086636E+03
 MD| Barostat temperature [K]            4.304070931916E+02   1.320499865403E+05
 MD| Cell volume [bohr^3]                2.083718667502E+06   2.076336440840E+06
 MD| Cell volume [ang^3]                 3.087752454840E+05   3.076813123705E+05
 MD| ---------------------------------------------------------------------------
 MD| Cell lengths [bohr]          9.12085598E+01  1.98310251E+02  1.15201549E+02
 MD| Cell lengths [ang]           4.82654911E+01  1.04941265E+02  6.09620342E+01
 MD| Average cell lengths [bohr]  9.11006640E+01  1.98075659E+02  1.15065271E+02
 MD| Average cell lengths [ang]   4.82083951E+01  1.04817124E+02  6.08899188E+01
 MD| ***************************************************************************

 ENERGY| Total FORCE_EVAL ( FIST ) energy [a.u.]:         -12700.832565997139682

 MD| ***************************************************************************
 MD| Step number                                                              24
 MD| Time [fs]                                                         48.000000
 MD| Conserved quantity [hartree]                            -0.126650030830E+05
 MD| ---------------------------------------------------------------------------
 MD|                                          Instantaneous             Averages
 MD| CPU time per MD step [s]                      0.500189             2.770047
 MD| Energy drift per atom [K]          -0.373563699812E+01  -0.140720273944E+01
 MD| Potential energy [hartree]         -0.127008325660E+05  -0.126961756016E+05
 MD| Kinetic energy [hartree]            0.356120209423E+02   0.310833522892E+02
 MD| Temperature [K]                             267.756548           233.706790
 MD| Pressure [bar]                      1.172134306188E+04   3.186939127271E+03
 MD| Barostat temperature [K]            9.211678919735E+01   1.265517419674E+05
 MD| Cell volume [bohr^3]                2.083655276209E+06   2.076641392314E+06
 MD| Cell volume [ang^3]                 3.087658518637E+05   3.077265015160E+05
 MD| ---------------------------------------------------------------------------
 MD| Cell lengths [bohr]          9.12076349E+01  1.98308240E+02  1.15200381E+02
 MD| Cell lengths [ang]           4.82650016E+01  1.04940201E+02  6.09614160E+01
 MD| Average cell lengths [bohr]  9.11051211E+01  1.98085350E+02  1.15070900E+02
 MD| Average cell lengths [ang]   4.82107537E+01  1.04822252E+02  6.08928978E+01
 MD| ***************************************************************************

 ENERGY| Total FORCE_EVAL ( FIST ) energy [a.u.]:         -12699.161470763860052

 MD| ***************************************************************************
 MD| Step number                                                              25
 MD| Time [fs]                                                         50.000000
 MD| Conserved quantity [hartree]                            -0.126649489218E+05
 MD| ---------------------------------------------------------------------------
 MD|                                          Instantaneous             Averages
 MD| CPU time per MD step [s]                      1.212882             2.707761
 MD| Energy drift per atom [K]          -0.312482558112E+01  -0.147590765310E+01
 MD| Potential energy [hartree]         -0.126991614708E+05  -0.126962950363E+05
 MD| Kinetic energy [hartree]            0.339933319230E+02   0.311997514745E+02
 MD| Temperature [K]                             255.586090           234.581962
 MD| Pressure [bar]                      2.730277076124E+04   4.151572392630E+03
 MD| Barostat temperature [K]            1.757122800402E+03   1.215599572007E+05
 MD| Cell volume [bohr^3]                2.083670848986E+06   2.076922570581E+06
 MD| Cell volume [ang^3]                 3.087681595111E+05   3.077681678358E+05
 MD| ---------------------------------------------------------------------------
 MD| Cell lengths [bohr]          9.12078621E+01  1.98308734E+02  1.15200668E+02
 MD| Cell lengths [ang]           4.82651219E+01  1.04940462E+02  6.09615679E+01
 MD| Average cell lengths [bohr]  9.11092308E+01  1.98094285E+02  1.15076091E+02
 MD| Average cell lengths [ang]   4.82129284E+01  1.04826981E+02  6.08956446E+01
 MD| ***************************************************************************

 ENERGY| Total FORCE_EVAL ( FIST ) energy [a.u.]:         -12695.203919696941739

 MD| ***************************************************************************
 MD| Step number                                                              26
 MD| Time [fs]                                                         52.000000
 MD| Conserved quantity [hartree]                            -0.126648234199E+05
 MD| ---------------------------------------------------------------------------
 MD|                                          Instantaneous             Averages
 MD| CPU time per MD step [s]                     10.240233             2.997471
 MD| Energy drift per atom [K]          -0.170945682099E+01  -0.148489031341E+01
 MD| Potential energy [hartree]         -0.126952039197E+05  -0.126962530703E+05
 MD| Kinetic energy [hartree]            0.301372312150E+02   0.311588853107E+02
 MD| Temperature [K]                             226.593178           234.274701
 MD| Pressure [bar]                      4.086945195550E+04   5.563798529663E+03
 MD| Barostat temperature [K]            1.682670418317E+04   1.175317551616E+05
 MD| Cell volume [bohr^3]                2.083864130753E+06   2.077189553664E+06
 MD| Cell volume [ang^3]                 3.087968009137E+05   3.078077306465E+05
 MD| ---------------------------------------------------------------------------
 MD| Cell lengths [bohr]          9.12106822E+01  1.98314866E+02  1.15204230E+02
 MD| Cell lengths [ang]           4.82666142E+01  1.04943707E+02  6.09634527E+01
 MD| Average cell lengths [bohr]  9.11131328E+01  1.98102769E+02  1.15081019E+02
 MD| Average cell lengths [ang]   4.82149933E+01  1.04831470E+02  6.08982526E+01
 MD| ***************************************************************************

 ENERGY| Total FORCE_EVAL ( FIST ) energy [a.u.]:         -12690.995833659417258

 MD| ***************************************************************************
 MD| Step number                                                              27
 MD| Time [fs]                                                         54.000000
 MD| Conserved quantity [hartree]                            -0.126646869199E+05
 MD| ---------------------------------------------------------------------------
 MD|                                          Instantaneous             Averages
 MD| CPU time per MD step [s]                      2.504663             2.979219
 MD| Energy drift per atom [K]          -0.170055523927E+00  -0.143619272861E+01
 MD| Potential energy [hartree]         -0.126909958337E+05  -0.126960583579E+05
 MD| Kinetic energy [hartree]            0.259938289504E+02   0.309675869270E+02
 MD| Temperature [K]                             195.440127           232.836384
 MD| Pressure [bar]                      5.036854612032E+04   7.223233625613E+03
 MD| Barostat temperature [K]            5.979458264940E+04   1.153933413648E+05
 MD| Cell volume [bohr^3]                2.084317217779E+06   2.077453541224E+06
 MD| Cell volume [ang^3]                 3.088639414829E+05   3.078468495664E+05
 MD| ---------------------------------------------------------------------------
 MD| Cell lengths [bohr]          9.12172922E+01  1.98329238E+02  1.15212579E+02
 MD| Cell lengths [ang]           4.82701121E+01  1.04951312E+02  6.09678708E+01
 MD| Average cell lengths [bohr]  9.11169905E+01  1.98111157E+02  1.15085892E+02
 MD| Average cell lengths [ang]   4.82170347E+01  1.04835909E+02  6.09008311E+01
 MD| ***************************************************************************

 ENERGY| Total FORCE_EVAL ( FIST ) energy [a.u.]:         -12688.704914894929971

 MD| ***************************************************************************
 MD| Step number                                                              28
 MD| Time [fs]                                                         56.000000
 MD| Conserved quantity [hartree]                            -0.126646097712E+05
 MD| ---------------------------------------------------------------------------
 MD|                                          Instantaneous             Averages
 MD| CPU time per MD step [s]                      3.966641             3.014484
 MD| Energy drift per atom [K]           0.700001519406E+00  -0.135990007690E+01
 MD| Potential energy [hartree]         -0.126887049149E+05  -0.126957957349E+05
 MD| Kinetic energy [hartree]            0.236437424732E+02   0.307060210536E+02
 MD| Temperature [K]                             177.770503           230.869745
 MD| Pressure [bar]                      5.418943705358E+04   8.900598033755E+03
 MD| Barostat temperature [K]            1.387547235569E+05   1.162276764431E+05
 MD| Cell volume [bohr^3]                2.085082790825E+06   2.077726014424E+06
 MD| Cell volume [ang^3]                 3.089773877024E+05   3.078872259284E+05
 MD| ---------------------------------------------------------------------------
 MD| Cell lengths [bohr]          9.12284589E+01  1.98353517E+02  1.15226683E+02
 MD| Cell lengths [ang]           4.82760212E+01  1.04964160E+02  6.09753344E+01
 MD| Average cell lengths [bohr]  9.11209715E+01  1.98119813E+02  1.15090920E+02
 MD| Average cell lengths [ang]   4.82191414E+01  1.04840489E+02  6.09034919E+01
 MD| ***************************************************************************

 ENERGY| Total FORCE_EVAL ( FIST ) energy [a.u.]:         -12689.548740518588602

 MD| ***************************************************************************
 MD| Step number                                                              29
 MD| Time [fs]                                                         58.000000
 MD| Conserved quantity [hartree]                            -0.126646325036E+05
 MD| ---------------------------------------------------------------------------
 MD|                                          Instantaneous             Averages
 MD| CPU time per MD step [s]                      2.430289             2.994339
 MD| Energy drift per atom [K]           0.443632859121E+00  -0.129770928600E+01
 MD| Potential energy [hartree]         -0.126895487405E+05  -0.126955803213E+05
 MD| Kinetic energy [hartree]            0.242703475429E+02   0.304841012774E+02
 MD| Temperature [K]                             182.481766           229.201194
 MD| Pressure [bar]                      5.158159028467E+04   1.037235638723E+04
 MD| Barostat temperature [K]            2.468215306614E+05   1.207309127955E+05
 MD| Cell volume [bohr^3]                2.086174103997E+06   2.078017327858E+06
 MD| Cell volume [ang^3]                 3.091391036277E+05   3.079303941249E+05
 MD| ---------------------------------------------------------------------------
 MD| Cell lengths [bohr]          9.12443722E+01  1.98388117E+02  1.15246782E+02
 MD| Cell lengths [ang]           4.82844422E+01  1.04982470E+02  6.09859705E+01
 MD| Average cell lengths [bohr]  9.11252267E+01  1.98129064E+02  1.15096295E+02
 MD| Average cell lengths [ang]   4.82213931E+01  1.04845385E+02  6.09063360E+01
 MD| ***************************************************************************

 ENERGY| Total FORCE_EVAL ( FIST ) energy [a.u.]:         -12693.174847189595312

 MD| ***************************************************************************
 MD| Step number                                                              30
 MD| Time [fs]                                                         60.000000
 MD| Conserved quantity [hartree]                            -0.126647422823E+05
 MD| ---------------------------------------------------------------------------
 MD|                                          Instantaneous             Averages
 MD| CPU time per MD step [s]                      1.023142             2.928633
 MD| Energy drift per atom [K]          -0.794414266918E+00  -0.128093278536E+01
 MD| Potential energy [hartree]         -0.126931748472E+05  -0.126955001388E+05
 MD| Kinetic energy [hartree]            0.275675667470E+02   0.303868834597E+02
 MD| Temperature [K]                             207.272609           228.470241
 MD| Pressure [bar]                      4.286859670528E+04   1.145556439784E+04
 MD| Barostat temperature [K]            3.602591944916E+05   1.287151888520E+05
 MD| Cell volume [bohr^3]                2.087560278554E+06   2.078335426214E+06
 MD| Cell volume [ang^3]                 3.093445135020E+05   3.079775314375E+05
 MD| ---------------------------------------------------------------------------
 MD| Cell lengths [bohr]          9.12645771E+01  1.98432047E+02  1.15272302E+02
 MD| Cell lengths [ang]           4.82951341E+01  1.05005717E+02  6.09994751E+01
 MD| Average cell lengths [bohr]  9.11298717E+01  1.98139164E+02  1.15102162E+02
 MD| Average cell lengths [ang]   4.82238511E+01  1.04850730E+02  6.09094406E+01
 MD| ***************************************************************************

 ENERGY| Total FORCE_EVAL ( FIST ) energy [a.u.]:         -12697.857442406524569

 MD| ***************************************************************************
 MD| Step number                                                              31
 MD| Time [fs]                                                         62.000000
 MD| Conserved quantity [hartree]                            -0.126648812986E+05
 MD| ---------------------------------------------------------------------------
 MD|                                          Instantaneous             Averages
 MD| CPU time per MD step [s]                      2.339904             2.909642
 MD| Energy drift per atom [K]          -0.236219332177E+01  -0.131581215751E+01
 MD| Potential energy [hartree]         -0.126978574424E+05  -0.126955761809E+05
 MD| Kinetic energy [hartree]            0.319177542371E+02   0.304362663880E+02
 MD| Temperature [K]                             239.980418           228.841537
 MD| Pressure [bar]                      2.936619988542E+04   1.203332683292E+04
 MD| Barostat temperature [K]            4.462187369606E+05   1.389572387910E+05
 MD| Cell volume [bohr^3]                2.089168768988E+06   2.078684888884E+06
 MD| Cell volume [ang^3]                 3.095828671897E+05   3.080293164617E+05
 MD| ---------------------------------------------------------------------------
 MD| Cell lengths [bohr]          9.12880112E+01  1.98482999E+02  1.15301901E+02
 MD| Cell lengths [ang]           4.83075350E+01  1.05032679E+02  6.10151380E+01
 MD| Average cell lengths [bohr]  9.11349730E+01  1.98150255E+02  1.15108605E+02
 MD| Average cell lengths [ang]   4.82265506E+01  1.04856599E+02  6.09128502E+01
 MD| ***************************************************************************

 ENERGY| Total FORCE_EVAL ( FIST ) energy [a.u.]:         -12701.385502754865229

 MD| ***************************************************************************
 MD| Step number                                                              32
 MD| Time [fs]                                                         64.000000
 MD| Conserved quantity [hartree]                            -0.126649804523E+05
 MD| ---------------------------------------------------------------------------
 MD|                                          Instantaneous             Averages
 MD| CPU time per MD step [s]                      1.025587             2.850765
 MD| Energy drift per atom [K]          -0.348041586022E+01  -0.138345602322E+01
 MD| Potential energy [hartree]         -0.127013855028E+05  -0.126957577222E+05
 MD| Kinetic energy [hartree]            0.352257256205E+02   0.305859369890E+02
 MD| Temperature [K]                             264.852104           229.966867
 MD| Pressure [bar]                      1.303932425969E+04   1.206476425251E+04
 MD| Barostat temperature [K]            4.770266431693E+05   1.495219076778E+05
 MD| Cell volume [bohr^3]                2.090895371470E+06   2.079066466465E+06
 MD| Cell volume [ang^3]                 3.098387232769E+05   3.080858604247E+05
 MD| ---------------------------------------------------------------------------
 MD| Cell lengths [bohr]          9.13131527E+01  1.98537663E+02  1.15333656E+02
 MD| Cell lengths [ang]           4.83208393E+01  1.05061606E+02  6.10319421E+01
 MD| Average cell lengths [bohr]  9.11405411E+01  1.98162362E+02  1.15115638E+02
 MD| Average cell lengths [ang]   4.82294971E+01  1.04863005E+02  6.09165718E+01
 MD| ***************************************************************************

 ENERGY| Total FORCE_EVAL ( FIST ) energy [a.u.]:         -12702.132876361862145

 MD| ***************************************************************************
 MD| Step number                                                              33
 MD| Time [fs]                                                         66.000000
 MD| Conserved quantity [hartree]                            -0.126649959448E+05
 MD| ---------------------------------------------------------------------------
 MD|                                          Instantaneous             Averages
 MD| CPU time per MD step [s]                      4.576262             2.903053
 MD| Energy drift per atom [K]          -0.365513482274E+01  -0.145229477472E+01
 MD| Potential energy [hartree]         -0.127021328764E+05  -0.126959509087E+05
 MD| Kinetic energy [hartree]            0.359330821738E+02   0.307479716916E+02
 MD| Temperature [K]                             270.170515           231.185160
 MD| Pressure [bar]                     -3.957595301537E+03   1.157923820541E+04
 MD| Barostat temperature [K]            4.429466137884E+05   1.584135654387E+05
 MD| Cell volume [bohr^3]                2.092619962510E+06   2.079477178467E+06
 MD| Cell volume [ang^3]                 3.100942812992E+05   3.081467216633E+05
 MD| ---------------------------------------------------------------------------
 MD| Cell lengths [bohr]          9.13382512E+01  1.98592233E+02  1.15365357E+02
 MD| Cell lengths [ang]           4.83341208E+01  1.05090483E+02  6.10487174E+01
 MD| Average cell lengths [bohr]  9.11465323E+01  1.98175388E+02  1.15123205E+02
 MD| Average cell lengths [ang]   4.82326676E+01  1.04869899E+02  6.09205762E+01
 MD| ***************************************************************************

 ENERGY| Total FORCE_EVAL ( FIST ) energy [a.u.]:         -12699.751871294576631

 MD| ***************************************************************************
 MD| Step number                                                              34
 MD| Time [fs]                                                         68.000000
 MD| Conserved quantity [hartree]                            -0.126649270268E+05
 MD| ---------------------------------------------------------------------------
 MD|                                          Instantaneous             Averages
 MD| CPU time per MD step [s]                      1.708114             2.867907
 MD| Energy drift per atom [K]          -0.287790156081E+01  -0.149422438607E+01
 MD| Potential energy [hartree]         -0.126997518713E+05  -0.126960627017E+05
 MD| Kinetic energy [hartree]            0.336860338188E+02   0.308343852836E+02
 MD| Temperature [K]                             253.275604           231.834879
 MD| Pressure [bar]                     -1.968546512163E+04   1.065968810756E+04
 MD| Barostat temperature [K]            3.558782336545E+05   1.642213497980E+05
 MD| Cell volume [bohr^3]                2.094224165949E+06   2.079910913392E+06
 MD| Cell volume [ang^3]                 3.103319997198E+05   3.082109945474E+05
 MD| ---------------------------------------------------------------------------
 MD| Cell lengths [bohr]          9.13615852E+01  1.98642967E+02  1.15394829E+02
 MD| Cell lengths [ang]           4.83464686E+01  1.05117331E+02  6.10643134E+01
 MD| Average cell lengths [bohr]  9.11528574E+01  1.98189140E+02  1.15131194E+02
 MD| Average cell lengths [ang]   4.82360146E+01  1.04877176E+02  6.09248038E+01
 MD| ***************************************************************************

 ENERGY| Total FORCE_EVAL ( FIST ) energy [a.u.]:         -12695.210557108124704

 MD| ***************************************************************************
 MD| Step number                                                              35
 MD| Time [fs]                                                         70.000000
 MD| Conserved quantity [hartree]                            -0.126648085766E+05
 MD| ---------------------------------------------------------------------------
 MD|                                          Instantaneous             Averages
 MD| CPU time per MD step [s]                      0.222224             2.792316
 MD| Energy drift per atom [K]          -0.154205894764E+01  -0.149559108783E+01
 MD| Potential energy [hartree]         -0.126952105571E+05  -0.126960383547E+05
 MD| Kinetic energy [hartree]            0.293857274263E+02   0.307929950591E+02
 MD| Temperature [K]                             220.942837           231.523678
 MD| Pressure [bar]                     -3.265795568209E+04   9.422041142141E+03
 MD| Barostat temperature [K]            2.427335112931E+05   1.664645544122E+05
 MD| Cell volume [bohr^3]                2.095606622197E+06   2.080359362215E+06
 MD| Cell volume [ang^3]                 3.105368585974E+05   3.082774478059E+05
 MD| ---------------------------------------------------------------------------
 MD| Cell lengths [bohr]          9.13816842E+01  1.98686667E+02  1.15420215E+02
 MD| Cell lengths [ang]           4.83571046E+01  1.05140456E+02  6.10777472E+01
 MD| Average cell lengths [bohr]  9.11593953E+01  1.98203356E+02  1.15139452E+02
 MD| Average cell lengths [ang]   4.82394744E+01  1.04884698E+02  6.09291736E+01
 MD| ***************************************************************************

 ENERGY| Total FORCE_EVAL ( FIST ) energy [a.u.]:         -12690.273194827890620

 MD| ***************************************************************************
 MD| Step number                                                              36
 MD| Time [fs]                                                         72.000000
 MD| Conserved quantity [hartree]                            -0.126646892687E+05
 MD| ---------------------------------------------------------------------------
 MD|                                          Instantaneous             Averages
 MD| CPU time per MD step [s]                      0.183856             2.719859
 MD| Energy drift per atom [K]          -0.196544144432E+00  -0.145950645051E+01
 MD| Potential energy [hartree]         -0.126902731948E+05  -0.126958782114E+05
 MD| Kinetic energy [hartree]            0.247047037964E+02   0.306238758574E+02
 MD| Temperature [K]                             185.747566           230.252119
 MD| Pressure [bar]                     -4.189853340623E+04   7.996469626909E+03
 MD| Barostat temperature [K]            1.336944408898E+05   1.655542734810E+05
 MD| Cell volume [bohr^3]                2.096692977419E+06   2.080813073749E+06
 MD| Cell volume [ang^3]                 3.106978398304E+05   3.083446809177E+05
 MD| ---------------------------------------------------------------------------
 MD| Cell lengths [bohr]          9.13974721E+01  1.98720994E+02  1.15440156E+02
 MD| Cell lengths [ang]           4.83654592E+01  1.05158621E+02  6.10882995E+01
 MD| Average cell lengths [bohr]  9.11660086E+01  1.98217734E+02  1.15147805E+02
 MD| Average cell lengths [ang]   4.82429739E+01  1.04892307E+02  6.09335938E+01
 MD| ***************************************************************************

 ENERGY| Total FORCE_EVAL ( FIST ) energy [a.u.]:         -12686.750062937209805

 MD| ***************************************************************************
 MD| Step number                                                              37
 MD| Time [fs]                                                         74.000000
 MD| Conserved quantity [hartree]                            -0.126646108822E+05
 MD| ---------------------------------------------------------------------------
 MD|                                          Instantaneous             Averages
 MD| CPU time per MD step [s]                      4.691673             2.773151
 MD| Energy drift per atom [K]           0.687472230059E+00  -0.140147999969E+01
 MD| Potential energy [hartree]         -0.126867500629E+05  -0.126956315047E+05
 MD| Kinetic energy [hartree]            0.213726374937E+02   0.303738423881E+02
 MD| Temperature [K]                             160.694717           228.372189
 MD| Pressure [bar]                     -4.687295611990E+04   6.513512174292E+03
 MD| Barostat temperature [K]            5.195352050869E+04   1.624839828601E+05
 MD| Cell volume [bohr^3]                2.097440168308E+06   2.081262454683E+06
 MD| Cell volume [ang^3]                 3.108085620952E+05   3.084112723009E+05
 MD| ---------------------------------------------------------------------------
 MD| Cell lengths [bohr]          9.14083279E+01  1.98744597E+02  1.15453867E+02
 MD| Cell lengths [ang]           4.83712038E+01  1.05171111E+02  6.10955553E+01
 MD| Average cell lengths [bohr]  9.11725578E+01  1.98231974E+02  1.15156077E+02
 MD| Average cell lengths [ang]   4.82464396E+01  1.04899843E+02  6.09379711E+01
 MD| ***************************************************************************

 ENERGY| Total FORCE_EVAL ( FIST ) energy [a.u.]:         -12685.839619177982968

 MD| ***************************************************************************
 MD| Step number                                                              38
 MD| Time [fs]                                                         76.000000
 MD| Conserved quantity [hartree]                            -0.126645967551E+05
 MD| ---------------------------------------------------------------------------
 MD|                                          Instantaneous             Averages
 MD| CPU time per MD step [s]                      1.902580             2.750242
[...]
 MD| Cell lengths [ang]           4.83283532E+01  1.05077943E+02  6.10414326E+01
 MD| Average cell lengths [bohr]  9.13163098E+01  1.98544527E+02  1.15337643E+02
 MD| Average cell lengths [ang]   4.83225099E+01  1.05065238E+02  6.10340522E+01
 MD| ***************************************************************************

 ENERGY| Total FORCE_EVAL ( FIST ) energy [a.u.]:         -12701.621883408377471

 MD| ***************************************************************************
 MD| Step number                                                             307
 MD| Time [fs]                                                        614.000000
 MD| Conserved quantity [hartree]                            -0.126649165323E+05
 MD| ---------------------------------------------------------------------------
 MD|                                          Instantaneous             Averages
 MD| CPU time per MD step [s]                      0.175122             1.987254
 MD| Energy drift per atom [K]          -0.275954770906E+01  -0.127336792261E+01
 MD| Potential energy [hartree]         -0.127016218834E+05  -0.126961475233E+05
 MD| Kinetic energy [hartree]            0.347483806636E+02   0.300495425481E+02
 MD| Temperature [K]                             261.263085           225.933872
 MD| Pressure [bar]                      7.844705405957E+03   1.972283350667E+02
 MD| Barostat temperature [K]            7.205778590483E+04   7.280369973069E+04
 MD| Cell volume [bohr^3]                2.091158234310E+06   2.091116985514E+06
 MD| Cell volume [ang^3]                 3.098776755305E+05   3.098715630897E+05
 MD| ---------------------------------------------------------------------------
 MD| Cell lengths [bohr]          9.13169791E+01  1.98545982E+02  1.15338489E+02
 MD| Cell lengths [ang]           4.83228641E+01  1.05066009E+02  6.10344996E+01
 MD| Average cell lengths [bohr]  9.13163120E+01  1.98544532E+02  1.15337646E+02
 MD| Average cell lengths [ang]   4.83225111E+01  1.05065241E+02  6.10340537E+01
 MD| ***************************************************************************

 ENERGY| Total FORCE_EVAL ( FIST ) energy [a.u.]:         -12699.435209972514713

 MD| ***************************************************************************
 MD| Step number                                                             308
 MD| Time [fs]                                                        616.000000
 MD| Conserved quantity [hartree]                            -0.126648592285E+05
 MD| ---------------------------------------------------------------------------
 MD|                                          Instantaneous             Averages
 MD| CPU time per MD step [s]                      0.174218             1.981368
 MD| Energy drift per atom [K]          -0.211329399627E+01  -0.127609495531E+01
 MD| Potential energy [hartree]         -0.126994352100E+05  -0.126961581976E+05
 MD| Kinetic energy [hartree]            0.326530226502E+02   0.300579954056E+02
 MD| Temperature [K]                             245.508690           225.997426
 MD| Pressure [bar]                      1.975636845292E+04   2.607320367481E+02
 MD| Barostat temperature [K]            4.854722622135E+04   7.272494494657E+04
 MD| Cell volume [bohr^3]                2.090528750230E+06   2.091115075660E+06
 MD| Cell volume [ang^3]                 3.097843956149E+05   3.098712800784E+05
 MD| ---------------------------------------------------------------------------
 MD| Cell lengths [bohr]          9.13078154E+01  1.98526058E+02  1.15326915E+02
 MD| Cell lengths [ang]           4.83180149E+01  1.05055465E+02  6.10283747E+01
 MD| Average cell lengths [bohr]  9.13162844E+01  1.98544472E+02  1.15337611E+02
 MD| Average cell lengths [ang]   4.83224965E+01  1.05065209E+02  6.10340352E+01
 MD| ***************************************************************************

 ENERGY| Total FORCE_EVAL ( FIST ) energy [a.u.]:         -12695.961877895357247

 MD| ***************************************************************************
 MD| Step number                                                             309
 MD| Time [fs]                                                        618.000000
 MD| Conserved quantity [hartree]                            -0.126647608555E+05
 MD| ---------------------------------------------------------------------------
 MD|                                          Instantaneous             Averages
 MD| CPU time per MD step [s]                      0.184490             1.975553
 MD| Energy drift per atom [K]          -0.100387666479E+01  -0.127521398997E+01
 MD| Potential energy [hartree]         -0.126959618779E+05  -0.126961575622E+05
 MD| Kinetic energy [hartree]            0.293212977163E+02   0.300556112707E+02
 MD| Temperature [K]                             220.458408           225.979501
 MD| Pressure [bar]                      2.969338254294E+04   3.559833328846E+02
 MD| Barostat temperature [K]            2.124044051552E+04   7.255832842738E+04
 MD| Cell volume [bohr^3]                2.090056829169E+06   2.091111650914E+06
 MD| Cell volume [ang^3]                 3.097144641296E+05   3.098707725834E+05
 MD| ---------------------------------------------------------------------------
 MD| Cell lengths [bohr]          9.13009442E+01  1.98511118E+02  1.15318236E+02
 MD| Cell lengths [ang]           4.83143788E+01  1.05047559E+02  6.10237822E+01
 MD| Average cell lengths [bohr]  9.13162348E+01  1.98544364E+02  1.15337549E+02
 MD| Average cell lengths [ang]   4.83224702E+01  1.05065152E+02  6.10340020E+01
 MD| ***************************************************************************

 ENERGY| Total FORCE_EVAL ( FIST ) energy [a.u.]:         -12692.792182085431705

 MD| ***************************************************************************
 MD| Step number                                                             310
 MD| Time [fs]                                                        620.000000
 MD| Conserved quantity [hartree]                            -0.126646670359E+05
 MD| ---------------------------------------------------------------------------
 MD|                                          Instantaneous             Averages
 MD| CPU time per MD step [s]                      0.170354             1.969730
 MD| Energy drift per atom [K]           0.541897702384E-01  -0.127092559075E+01
 MD| Potential energy [hartree]         -0.126927921821E+05  -0.126961467062E+05
 MD| Kinetic energy [hartree]            0.262773962034E+02   0.300434234802E+02
 MD| Temperature [K]                             197.572188           225.887864
 MD| Pressure [bar]                      3.621526384127E+04   4.716584312988E+02
 MD| Barostat temperature [K]            2.801811327153E+03   7.233330740447E+04
 MD| Cell volume [bohr^3]                2.089800344932E+06   2.091107420894E+06
 MD| Cell volume [ang^3]                 3.096764570874E+05   3.098701457593E+05
 MD| ---------------------------------------------------------------------------
 MD| Cell lengths [bohr]          9.12972094E+01  1.98502998E+02  1.15313519E+02
 MD| Cell lengths [ang]           4.83124024E+01  1.05043262E+02  6.10212859E+01
 MD| Average cell lengths [bohr]  9.13161734E+01  1.98544230E+02  1.15337471E+02
 MD| Average cell lengths [ang]   4.83224377E+01  1.05065082E+02  6.10339610E+01
 MD| ***************************************************************************

 ENERGY| Total FORCE_EVAL ( FIST ) energy [a.u.]:         -12691.415490523946573

 MD| ***************************************************************************
 MD| Step number                                                             311
 MD| Time [fs]                                                        622.000000
 MD| Conserved quantity [hartree]                            -0.126646255697E+05
 MD| ---------------------------------------------------------------------------
 MD|                                          Instantaneous             Averages
 MD| CPU time per MD step [s]                      0.185163             1.963991
 MD| Energy drift per atom [K]           0.521830952150E+00  -0.126516110025E+01
 MD| Potential energy [hartree]         -0.126914154905E+05  -0.126961314933E+05
 MD| Kinetic energy [hartree]            0.249468882219E+02   0.300270359070E+02
 MD| Temperature [K]                             187.568481           225.764651
 MD| Pressure [bar]                      3.828492953875E+04   5.932445120301E+02
 MD| Barostat temperature [K]            2.212910332516E+03   7.210783988977E+04
 MD| Cell volume [bohr^3]                2.089792302081E+06   2.091103192216E+06
 MD| Cell volume [ang^3]                 3.096752652599E+05   3.098695191339E+05
 MD| ---------------------------------------------------------------------------
 MD| Cell lengths [bohr]          9.12970922E+01  1.98502743E+02  1.15313371E+02
 MD| Cell lengths [ang]           4.83123404E+01  1.05043127E+02  6.10212076E+01
 MD| Average cell lengths [bohr]  9.13161120E+01  1.98544097E+02  1.15337394E+02
 MD| Average cell lengths [ang]   4.83224053E+01  1.05065011E+02  6.10339200E+01
 MD| ***************************************************************************

 ENERGY| Total FORCE_EVAL ( FIST ) energy [a.u.]:         -12692.483599026414595

 MD| ***************************************************************************
 MD| Step number                                                             312
 MD| Time [fs]                                                        624.000000
 MD| Conserved quantity [hartree]                            -0.126646590855E+05
 MD| ---------------------------------------------------------------------------
 MD|                                          Instantaneous             Averages
 MD| CPU time per MD step [s]                      0.205827             1.958356
 MD| Energy drift per atom [K]           0.143850926103E+00  -0.126064503607E+01
 MD| Potential energy [hartree]         -0.126924835990E+05  -0.126961198013E+05
 MD| Kinetic energy [hartree]            0.259556956706E+02   0.300139867396E+02
 MD| Temperature [K]                             195.153414           225.666538
 MD| Pressure [bar]                      3.553323308139E+04   7.052316548806E+02
 MD| Barostat temperature [K]            2.011415486294E+04   7.194119346340E+04
 MD| Cell volume [bohr^3]                2.090035434123E+06   2.091099769915E+06
 MD| Cell volume [ang^3]                 3.097112937109E+05   3.098690120011E+05
 MD| ---------------------------------------------------------------------------
 MD| Cell lengths [bohr]          9.13006327E+01  1.98510441E+02  1.15317842E+02
 MD| Cell lengths [ang]           4.83142140E+01  1.05047201E+02  6.10235739E+01
 MD| Average cell lengths [bohr]  9.13160624E+01  1.98543989E+02  1.15337331E+02
 MD| Average cell lengths [ang]   4.83223790E+01  1.05064954E+02  6.10338869E+01
 MD| ***************************************************************************

 ENERGY| Total FORCE_EVAL ( FIST ) energy [a.u.]:         -12695.466752526612254

 MD| ***************************************************************************
 MD| Step number                                                             313
 MD| Time [fs]                                                        626.000000
 MD| Conserved quantity [hartree]                            -0.126647502493E+05
 MD| ---------------------------------------------------------------------------
 MD|                                          Instantaneous             Averages
 MD| CPU time per MD step [s]                      0.265539             1.952948
 MD| Energy drift per atom [K]          -0.884263664782E+00  -0.125944253967E+01
 MD| Potential energy [hartree]         -0.126954667525E+05  -0.126961177149E+05
 MD| Kinetic energy [hartree]            0.288028885288E+02   0.300101174162E+02
 MD| Temperature [K]                             216.560639           225.637446
 MD| Pressure [bar]                      2.837137376495E+04   7.936218852642E+02
 MD| Barostat temperature [K]            4.822297181911E+04   7.186541639745E+04
 MD| Cell volume [bohr^3]                2.090501115359E+06   2.091097857281E+06
 MD| Cell volume [ang^3]                 3.097803005496E+05   3.098687285779E+05
 MD| ---------------------------------------------------------------------------
 MD| Cell lengths [bohr]          9.13074131E+01  1.98525183E+02  1.15326406E+02
 MD| Cell lengths [ang]           4.83178020E+01  1.05055002E+02  6.10281058E+01
 MD| Average cell lengths [bohr]  9.13160348E+01  1.98543929E+02  1.15337296E+02
 MD| Average cell lengths [ang]   4.83223644E+01  1.05064922E+02  6.10338684E+01
 MD| ***************************************************************************

 ENERGY| Total FORCE_EVAL ( FIST ) energy [a.u.]:         -12698.921181682349925

 MD| ***************************************************************************
 MD| Step number                                                             314
 MD| Time [fs]                                                        628.000000
 MD| Conserved quantity [hartree]                            -0.126648514921E+05
 MD| ---------------------------------------------------------------------------
 MD|                                          Instantaneous             Averages
 MD| CPU time per MD step [s]                      0.222018             1.947435
 MD| Energy drift per atom [K]          -0.202604548457E+01  -0.126188395033E+01
 MD| Potential energy [hartree]         -0.126989211817E+05  -0.126961266431E+05
 MD| Kinetic energy [hartree]            0.321127509699E+02   0.300168137014E+02
 MD| Temperature [K]                             241.446543           225.687793
 MD| Pressure [bar]                      1.789510519526E+04   8.480852079075E+02
 MD| Barostat temperature [K]            7.339447618969E+04   7.187028601462E+04
 MD| Cell volume [bohr^3]                2.091133117643E+06   2.091097969575E+06
 MD| Cell volume [ang^3]                 3.098739536246E+05   3.098687452182E+05
 MD| ---------------------------------------------------------------------------
 MD| Cell lengths [bohr]          9.13166135E+01  1.98545187E+02  1.15338027E+02
 MD| Cell lengths [ang]           4.83226707E+01  1.05065588E+02  6.10342552E+01
 MD| Average cell lengths [bohr]  9.13160366E+01  1.98543933E+02  1.15337298E+02
 MD| Average cell lengths [ang]   4.83223654E+01  1.05064924E+02  6.10338696E+01
 MD| ***************************************************************************

 ENERGY| Total FORCE_EVAL ( FIST ) energy [a.u.]:         -12701.220241583261668

 MD| ***************************************************************************
 MD| Step number                                                             315
 MD| Time [fs]                                                        630.000000
 MD| Conserved quantity [hartree]                            -0.126649129434E+05
 MD| ---------------------------------------------------------------------------
 MD|                                          Instantaneous             Averages
 MD| CPU time per MD step [s]                      0.233601             1.941995
 MD| Energy drift per atom [K]          -0.271907348101E+01  -0.126650994884E+01
 MD| Potential energy [hartree]         -0.127012202416E+05  -0.126961428133E+05
 MD| Kinetic energy [hartree]            0.343277408165E+02   0.300304991843E+02
 MD| Temperature [K]                             258.100415           225.790690
 MD| Pressure [bar]                      5.619283832132E+03   8.632318702067E+02
 MD| Barostat temperature [K]            8.415542294925E+04   7.190928644933E+04
 MD| Cell volume [bohr^3]                2.091855642990E+06   2.091100374887E+06
 MD| Cell volume [ang^3]                 3.099810208331E+05   3.098691016487E+05
 MD| ---------------------------------------------------------------------------
 MD| Cell lengths [bohr]          9.13271295E+01  1.98568052E+02  1.15351309E+02
 MD| Cell lengths [ang]           4.83282355E+01  1.05077687E+02  6.10412839E+01
 MD| Average cell lengths [bohr]  9.13160718E+01  1.98544009E+02  1.15337343E+02
 MD| Average cell lengths [ang]   4.83223840E+01  1.05064965E+02  6.10338932E+01
 MD| ***************************************************************************

 ENERGY| Total FORCE_EVAL ( FIST ) energy [a.u.]:         -12701.328952177491374

 MD| ***************************************************************************
 MD| Step number                                                             316
 MD| Time [fs]                                                        632.000000
 MD| Conserved quantity [hartree]                            -0.126649087943E+05
 MD| ---------------------------------------------------------------------------
 MD|                                          Instantaneous             Averages
 MD| CPU time per MD step [s]                      0.210600             1.936516
 MD| Energy drift per atom [K]          -0.267228128909E+01  -0.127095859232E+01
 MD| Potential energy [hartree]         -0.127013289522E+05  -0.126961592251E+05
 MD| Kinetic energy [hartree]            0.344476781711E+02   0.300444775988E+02
 MD| Temperature [K]                             259.002189           225.895790
 MD| Pressure [bar]                     -6.849619763439E+03   8.388241118723E+02
 MD| Barostat temperature [K]            7.608976817546E+04   7.192251582188E+04
 MD| Cell volume [bohr^3]                2.092584002669E+06   2.091105069912E+06
 MD| Cell volume [ang^3]                 3.100889526006E+05   3.098697973796E+05
 MD| ---------------------------------------------------------------------------
 MD| Cell lengths [bohr]          9.13377280E+01  1.98591095E+02  1.15364696E+02
 MD| Cell lengths [ang]           4.83338439E+01  1.05089881E+02  6.10483677E+01
 MD| Average cell lengths [bohr]  9.13161404E+01  1.98544158E+02  1.15337429E+02
 MD| Average cell lengths [ang]   4.83224203E+01  1.05065044E+02  6.10339390E+01
 MD| ***************************************************************************

 ENERGY| Total FORCE_EVAL ( FIST ) energy [a.u.]:         -12699.220267978482298

 MD| ***************************************************************************
 MD| Step number                                                             317
 MD| Time [fs]                                                        634.000000
 MD| Conserved quantity [hartree]                            -0.126648459223E+05
 MD| ---------------------------------------------------------------------------
 MD|                                          Instantaneous             Averages
 MD| CPU time per MD step [s]                      0.196750             1.931027
 MD| Energy drift per atom [K]          -0.196323150831E+01  -0.127314241855E+01
 MD| Potential energy [hartree]         -0.126992202680E+05  -0.126961688814E+05
 MD| Kinetic energy [hartree]            0.324341036281E+02   0.300520158513E+02
 MD| Temperature [K]                             243.862701           225.952468
 MD| Pressure [bar]                     -1.808605329174E+04   7.791241831543E+02
 MD| Barostat temperature [K]            5.335950051620E+04   7.186395741398E+04
 MD| Cell volume [bohr^3]                2.093235728816E+06   2.091111791233E+06
 MD| Cell volume [ang^3]                 3.101855284504E+05   3.098707933766E+05
 MD| ---------------------------------------------------------------------------
 MD| Cell lengths [bohr]          9.13472092E+01  1.98611710E+02  1.15376671E+02
 MD| Cell lengths [ang]           4.83388612E+01  1.05100790E+02  6.10547048E+01
 MD| Average cell lengths [bohr]  9.13162384E+01  1.98544372E+02  1.15337553E+02
 MD| Average cell lengths [ang]   4.83224721E+01  1.05065156E+02  6.10340045E+01
 MD| ***************************************************************************
