#     Step Nr.          Time[fs]        Kin.[a.u.]          Temp[K]            Pot.[a.u.]        Cons Qty[a.u.]        UsedTime[s]
         0            0.000000        39.900448259       300.000000000    -12704.580765676    -12664.671840919         0.000000000
       113          226.000000        22.183737198       166.793142677    -12687.832516447    -12664.574708426         0.265903310
       338          676.000000        25.855223421       194.397992122    -12692.414351636    -12664.655525837         0.244654882
        75          150.000000        22.715779309       170.793414367    -12688.170161127    -12664.595973069         0.260269855
       189          378.000000        23.215217095       174.548543500    -12689.288385587    -12664.604995540         0.269530264
        76          152.000000        22.932187546       172.420525684    -12688.462688488    -12664.601679776         0.170320651
       339          678.000000        24.553228254       184.608664757    -12691.063092657    -12664.621807662         0.308958575
       190          380.000000        25.921781996       194.898426913    -12692.100175002    -12664.671635167         0.237871499
        77          154.000000        25.742109929       193.547524293    -12691.449569598    -12664.675466989         0.206103104
       340          680.000000        25.169052181       189.238867828    -12691.709480829    -12664.635891246         0.255914693
        78          156.000000        30.055348920       225.977528313    -12695.991089010    -12664.793523915         0.186789123
       191          382.000000        30.115439087       226.429329005    -12696.452563298    -12664.779593050         0.273521881
        68          136.000000        29.395245912       221.014403559    -12695.036375124    -12664.770469411         0.851430724
       113          226.000000        22.183737198       166.793142677    -12687.832516447    -12664.574708426         0.869310399
       341          682.000000        27.492029297       206.704664963    -12694.131092709    -12664.692938001         0.513749085
       342          684.000000        30.679242814       230.668407146    -12697.449747094    -12664.774089177         0.133881112
       343          686.000000        33.546427090       252.225941468    -12700.432707843    -12664.850844151         0.133188133
       344          688.000000        35.002104601       263.170762198    -12701.942636746    -12664.893246242         0.134791553
       345          690.000000        34.492222828       259.337107726    -12701.400787487    -12664.881627374         0.138786031
       346          692.000000        32.276307744       242.676279238    -12699.077727530    -12664.818170250         0.134639110
       347          694.000000        29.371320804       220.834517553    -12696.038148422    -12664.730803534         0.156610054
       348          696.000000        27.121518596       203.918901511    -12693.691742505    -12664.662742468         0.133500509
       349          698.000000        26.558991163       199.689419462    -12693.120429914    -12664.649692332         0.135013056
       157          314.000000        35.055253432       263.570372981    -12701.484923201    -12664.941186642         2.311130278
       114          228.000000        23.680462285       178.046588333    -12689.384470969    -12664.614753598         2.273098694
        69          138.000000        33.543122700       252.201096707    -12699.346790092    -12664.897128709         1.655510760
       114          228.000000        23.680462285       178.046588333    -12689.384470969    -12664.614753598         1.658660016
       350          700.000000        27.884347412       209.654392083    -12694.530516584    -12664.698408225         0.168049498
       192          384.000000        34.205893590       257.184280500    -12700.696489930    -12664.891087355         1.760435519
        79          158.000000        34.146912227       256.740816589    -12700.287587882    -12664.913151921         1.801476425
         1            2.000000        40.649619429       305.632802664    -12705.386302297    -12664.705029672         2.667010348
         1            2.000000        40.649619429       305.632802664    -12705.386302297    -12664.705029672         2.670560883
       158          316.000000        30.652663236       230.468562944    -12696.888628307    -12664.813804405         0.273468763
        70          140.000000        36.273719734       272.731670827    -12702.173775601    -12664.974937369         0.291302711
        71          142.000000        36.327790525       273.138213556    -12702.213036214    -12664.970316642         0.142464983
        72          144.000000        33.658732176       253.070331128    -12699.430666452    -12664.889841768         0.147420760
        73          146.000000        29.367785262       220.807934829    -12694.984795779    -12664.770478681         0.138099380
        74          148.000000        25.175246972       189.285444684    -12690.667151498    -12664.659364310         0.138189703
         2            4.000000        42.456814641       319.220583932    -12707.328189551    -12664.791539011         0.702061947
       193          386.000000        36.582584634       275.053937213    -12703.158922885    -12664.961893811         0.818633080
       115          230.000000        27.539376068       207.060651723    -12693.385744910    -12664.714144849         0.948433195
       116          232.000000        32.274354710       242.661594936    -12698.297816447    -12664.840022849         0.230603375
       351          702.000000        30.368456635       228.331695211    -12697.150591777    -12664.782441297         1.077724612
         3            6.000000        44.077372619       331.405093501    -12709.102642919    -12664.894089117         0.362065736
       352          704.000000        32.734987029       246.124956919    -12699.638030120    -12664.858283638         0.256444847
       115          230.000000        27.539376068       207.060651723    -12693.385744910    -12664.714144849         1.450318117
       353          706.000000        33.798466721       254.120955000    -12700.752284391    -12664.889713002         0.135753110
       116          232.000000        32.274354710       242.661594936    -12698.297816447    -12664.840022849         0.145327850
       117          234.000000        36.029752130       270.897348543    -12702.196739150    -12664.947121258         0.131758095
       118          236.000000        37.273042747       280.245293276    -12703.488116552    -12664.990598369         0.130151346
       159          318.000000        26.063347927       195.962820455    -12692.092021286    -12664.669647770         1.792119808
        80          160.000000        36.311397698       273.014960601    -12702.556440373    -12664.984147565         1.917219543
       119          238.000000        35.458033284       266.598758900    -12701.597766429    -12664.945125260         0.129907617
       160          320.000000        23.463398390       176.414547314    -12689.377462429    -12664.585810786         0.229948269
       120          240.000000        31.369244611       235.856332298    -12697.337998507    -12664.823641234         0.309356246
        81          162.000000        35.607199026       267.720293230    -12701.808350480    -12664.969584484         0.562128887
       161          322.000000        24.099765575       181.199209237    -12690.053882897    -12664.610904650         0.417622628
        82          164.000000        32.373094513       243.403991130    -12698.394134046    -12664.869638424         0.162691334
       121          242.000000        26.889181254       202.172023832    -12692.673595796    -12664.681142904         0.417836145
         4            8.000000        44.067864357       331.333603612    -12709.190741669    -12664.962682375         1.619323243
       117          234.000000        36.029752130       270.897348543    -12702.196739150    -12664.947121258         1.727380328
       162          324.000000        27.601066416       207.524483715    -12693.725875991    -12664.730155910         0.302603998
       163          326.000000        32.189266216       242.021839011    -12698.520503663    -12664.875132906         0.162374242
       164          328.000000        35.657726563       268.100195258    -12702.126166187    -12664.970243961         0.129031548
       165          330.000000        36.479053048       274.275512988    -12702.958397717    -12664.976133585         0.131554741
       166          332.000000        34.423037229       258.816921096    -12700.796430991    -12664.901235504         0.130081923
       167          334.000000        30.483481434       229.196533604    -12696.691127308    -12664.785387746         0.129487980
       168          336.000000        26.316320447       197.864848110    -12692.370028299    -12664.675678412         0.128498463
       169          338.000000        23.535064101       176.953381186    -12689.504960955    -12664.608914287         0.138733460
       170          340.000000        23.139068547       173.976004457    -12689.124460418    -12664.603579645         0.134520403
       122          244.000000        24.165898381       181.696442790    -12689.853449144    -12664.591243915         1.293574732
       118          236.000000        37.273042747       280.245293276    -12703.488116552    -12664.990598369         1.196638801
         5           10.000000        41.521666949       312.189477268    -12706.628753329    -12664.956856519         1.214485368
        83          166.000000        28.184256974       211.909325865    -12693.967275071    -12664.731179909         1.390018450
       171          342.000000        25.216243584       189.593686423    -12691.311482653    -12664.658281160         0.143689839
        75          150.000000        22.715779309       170.793414367    -12688.170161127    -12664.595973069         3.396357493
        84          168.000000        25.140822401       189.026616230    -12690.739178980    -12664.627381708         0.154885240
       194          388.000000        36.274774168       272.739598807    -12702.828438995    -12664.958403680         3.384824136
         6           12.000000        36.639465828       275.481610561    -12701.614504324    -12664.870909297         0.229063881
       354          708.000000        33.009660234       248.190145788    -12699.925273586    -12664.864590538         2.787683642
         3            6.000000        44.077372619       331.405093501    -12709.102642919    -12664.894089117         2.788479267
       172          344.000000        28.957105907       217.720154820    -12695.220660386    -12664.753660840         0.168456413
       123          246.000000        24.539299169       184.503935967    -12690.279804962    -12664.603321476         0.385427763
       119          238.000000        35.458033284       266.598758900    -12701.597766429    -12664.945125260         0.390898862
       355          710.000000        30.657043048       230.501493486    -12697.466537248    -12664.796615278         0.318585996
       356          712.000000        27.684625697       208.152741928    -12694.366626274    -12664.715148230         0.139268460
       195          390.000000        33.430948337       251.357689920    -12699.858409136    -12664.876654770         0.560052336
       120          240.000000        31.369244611       235.856332298    -12697.337998507    -12664.823641234         0.462839617
       357          714.000000        25.264551678       189.956901094    -12691.848249836    -12664.651358732         0.144800147
         4            8.000000        44.067864357       331.333603612    -12709.190741669    -12664.962682375         0.606646460
        76          152.000000        22.932187546       172.420525684    -12688.462688488    -12664.601679776         0.683005430
         7           14.000000        30.785090487       231.464245374    -12695.574868015    -12664.742765609         0.704561883
       124          248.000000        27.832071058       209.261341207    -12693.759321690    -12664.710474829         0.576864065
        85          170.000000        24.799481101       186.460169125    -12690.350384837    -12664.614605476         0.787156836
       173          346.000000        32.952883656       247.763259018    -12699.386466086    -12664.856944689         0.756553229
       358          716.000000        24.328358554       182.917934128    -12690.879164848    -12664.627339951         0.339149049
       196          392.000000        29.345097635       220.637353082    -12695.600486736    -12664.751733598         0.427444970
         5           10.000000        41.521666949       312.189477268    -12706.628753329    -12664.956856519         0.483032054
        77          154.000000        25.742109929       193.547524293    -12691.449569598    -12664.675466989         0.539299631
         8           16.000000        25.919815261       194.883639600    -12690.572119943    -12664.634616175         0.554728481
       359          718.000000        25.227034585       189.674820856    -12691.821718275    -12664.650470531         0.313693334
        78          156.000000        30.055348920       225.977528313    -12695.991089010    -12664.793523915         0.168641346
        79          158.000000        34.146912227       256.740816589    -12700.287587882    -12664.913151921         0.137574400
       125          250.000000        32.446903708       243.958941244    -12698.608980998    -12664.854627845         0.793219003
        80          160.000000        36.311397698       273.014960601    -12702.556440373    -12664.984147565         0.154009615
       126          252.000000        36.201996635       272.192405459    -12702.541963900    -12664.963727020         0.204626974
       121          242.000000        26.889181254       202.172023832    -12692.673595796    -12664.681142904         1.179632133
       127          254.000000        37.390187775       281.126073065    -12703.781249076    -12664.991058161         0.162525110
       197          394.000000        25.915241623       194.849251730    -12692.041232323    -12664.645486362         1.002464076
         6           12.000000        36.639465828       275.481610561    -12701.614504324    -12664.870909297         0.896246300
       122          244.000000        24.165898381       181.696442790    -12689.853449144    -12664.591243915         0.230537168
        81          162.000000        35.607199026       267.720293230    -12701.808350480    -12664.969584484         0.414219964
       128          256.000000        35.496071781       266.884759418    -12701.802871428    -12664.932225090         0.248759308
       198          396.000000        24.732199722       185.954299777    -12690.844595359    -12664.613370437         0.175455289
         7           14.000000        30.785090487       231.464245374    -12695.574868015    -12664.742765609         0.281237726
        82          164.000000        32.373094513       243.403991130    -12698.394134046    -12664.869638424         0.288693534
       199          398.000000        26.276803527       197.567731749    -12692.505558558    -12664.670578004         0.362023495
         8           16.000000        25.919815261       194.883639600    -12690.572119943    -12664.634616175         0.234575360
        83          166.000000        28.184256974       211.909325865    -12693.967275071    -12664.731179909         0.291500108
       200          400.000000        29.698550037       223.294860082    -12696.119577939    -12664.783198299         0.148934437
         9           18.000000        23.691594669       178.130289528    -12688.341012321    -12664.598227917         0.269723478
        10           20.000000        24.667703187       185.469368870    -12689.478124791    -12664.649596439         0.145990156
        11           22.000000        28.084313004       211.157875889    -12693.178695774    -12664.764899631         0.144451111
        12           24.000000        32.189980902       242.027212528    -12697.598883016    -12664.893747593         0.145058310
       123          246.000000        24.539299169       184.503935967    -12690.279804962    -12664.603321476         1.280457971
        13           26.000000        34.995511128       263.121187770    -12700.644769266    -12664.981373093         0.155425695
       129          258.000000        31.300487580       235.339367947    -12697.432689579    -12664.817708891         1.284642305
       124          248.000000        27.832071058       209.261341207    -12693.759321690    -12664.710474829         0.156082111
       130          260.000000        26.452884668       198.891635229    -12692.391787059    -12664.693682283         0.146494801
       174          348.000000        35.700468150       268.421556960    -12702.244705720    -12664.930045208         2.785886988
        84          168.000000        25.140822401       189.026616230    -12690.739178980    -12664.627381708         0.930518764
        14           28.000000        35.097428422       263.887474607    -12700.838645619    -12664.991800143         0.214388452
        86          172.000000        27.355673070       205.679441689    -12693.005796519    -12664.697795226         2.830725794
         9           18.000000        23.691594669       178.130289528    -12688.341012321    -12664.598227917         2.342212163
       360          720.000000        27.614552926       207.625884907    -12694.314173469    -12664.712323100         2.345726067
       125          250.000000        32.446903708       243.958941244    -12698.608980998    -12664.854627845         0.162971525
       201          402.000000        33.298746025       250.363698741    -12699.898320939    -12664.891343468         1.204218972
       175          350.000000        36.178794750       272.017957159    -12702.730358171    -12664.942012390         0.397798837
       202          404.000000        35.400854922       266.168851232    -12702.089684848    -12664.944893804         0.135971414
       361          722.000000        30.576711611       229.897504507    -12697.404616889    -12664.791026748         0.540888412
        15           30.000000        32.228560906       242.317284488    -12697.897088803    -12664.922381306         0.753150576
        85          170.000000        24.799481101       186.460169125    -12690.350384837    -12664.614605476         0.886849540
       203          406.000000        35.104678090       263.941982779    -12701.765487126    -12664.926156158         0.610171406
       177          354.000000        31.017575985       233.212236994    -12697.298209869    -12664.778091842         0.302150284
        86          172.000000        27.355673070       205.679441689    -12693.005796519    -12664.697795226         0.242741316
       204          408.000000        32.583729428       244.987694499    -12699.122025388    -12664.850098095         0.151776232
       178          356.000000        27.960696348       210.228437786    -12694.083465390    -12664.675189543         0.237060906
        87          174.000000        31.562176059       237.306928395    -12697.392517516    -12664.830124405         0.283229896
        88          176.000000        35.400619366       266.167080152    -12701.393362041    -12664.943580186         0.135793462
       131          262.000000        22.783221521       171.300492967    -12688.579460165    -12664.603679639         1.608748448
        89          178.000000        37.081894647       278.808105667    -12703.140925317    -12664.986481869         0.149761153
       132          264.000000        21.633902353       162.659092542    -12687.384190318    -12664.576695883         0.177933569
        11           22.000000        28.084313004       211.157875889    -12693.178695774    -12664.764899631         0.271065834
        12           24.000000        32.189980902       242.027212528    -12697.598883016    -12664.893747593         0.241618835
        13           26.000000        34.995511128       263.121187770    -12700.644769266    -12664.981373093         0.185109093
        87          174.000000        31.562176059       237.306928395    -12697.392517516    -12664.830124405         2.311347233
       362          724.000000        32.966951860       247.869033796    -12699.898312893    -12664.857062278         1.769477055
       126          252.000000        36.201996635       272.192405459    -12702.541963900    -12664.963727020         2.309729765
        16           32.000000        27.319884111       205.410354798    -12692.792589265    -12664.802090147         1.682567805
        14           28.000000        35.097428422       263.887474607    -12700.838645619    -12664.991800143         0.385172310
       363          726.000000        33.853027097       254.531178783    -12700.821180868    -12664.882938777         0.394125759
       133          266.000000        23.407326000       175.992955130    -12689.220340456    -12664.621420673         1.033543772
        15           30.000000        32.228560906       242.317284488    -12697.897088803    -12664.922381306         0.166273830
        91          182.000000        32.143857591       241.680424612    -12698.006292074    -12664.842546482         1.017666347
        17           34.000000        22.089915861       166.087727017    -12687.319076195    -12664.676078938         0.440935727
       127          254.000000        37.390187775       281.126073065    -12703.781249076    -12664.991058161         0.643761060
       179          358.000000        26.681419192       200.609920612    -12692.735927808    -12664.629235845         1.701637926
       205          410.000000        28.895117903       217.254084838    -12695.271129299    -12664.750425901         1.837859032
       364          728.000000        32.921135856       247.524556436    -12699.842120252    -12664.855349900         0.277284317
        16           32.000000        27.319884111       205.410354798    -12692.792589265    -12664.802090147         0.193711234
       134          268.000000        27.430812149       206.244390822    -12693.391030020    -12664.724510871         0.286715854
        18           36.000000        18.376993446       138.171330759    -12683.393028617    -12664.587356986         0.223751831
        92          184.000000        27.452891129       206.410396325    -12693.147880799    -12664.720932864         0.259005637
       128          256.000000        35.496071781       266.884759418    -12701.802871428    -12664.932225090         0.427949515
       129          258.000000        31.300487580       235.339367947    -12697.432689579    -12664.817708891         0.134605275
        17           34.000000        22.089915861       166.087727017    -12687.319076195    -12664.676078938         0.656946430
       365          730.000000        30.656274796       230.495717225    -12697.464929005    -12664.784540463         0.670593841
       130          260.000000        26.452884668       198.891635229    -12692.391787059    -12664.693682283         0.134897495
       135          270.000000        32.169513238       241.873322047    -12698.306896275    -12664.852191286         0.631353513
        93          186.000000        23.534196180       176.946855539    -12689.104700395    -12664.623391893         0.632202569
       206          412.000000        25.488314681       191.639310788    -12691.723925212    -12664.663810976         0.762372819
       180          360.000000        27.864925104       209.508361336    -12693.976251030    -12664.666710801         0.819998656
        89          178.000000        37.081894647       278.808105667    -12703.140925317    -12664.986481869         0.852771503
       136          272.000000        35.754466290       268.827553454    -12702.028759425    -12664.956969319         0.425796913
       137          274.000000        36.705791978       275.980297814    -12703.015070095    -12664.992354054         0.138026055
        94          188.000000        21.836614352       164.183225789    -12687.374169551    -12664.580745171         0.634987119
       138          276.000000        34.612517485       260.241568670    -12700.831666932    -12664.935076901         0.135854371
       366          732.000000        28.170228112       211.803846882    -12694.852091866    -12664.703406438         0.807995816
        95          190.000000        23.001113009       172.938756427    -12688.614312565    -12664.605759932         0.162934571
        20           40.000000        19.746405047       148.467542915    -12684.619533159    -12664.614247644         0.854629900
       131          262.000000        22.783221521       171.300492967    -12688.579460165    -12664.603679639         0.926123575
       139          278.000000        30.438330826       228.857059163    -12696.479393853    -12664.805192728         0.212864387
       367          734.000000        26.703554400       200.776348878    -12693.304181092    -12664.652864906         0.257466942
       368          736.000000        27.021405104       203.166176949    -12693.624636457    -12664.659798552         0.199576806
       132          264.000000        21.633902353       162.659092542    -12687.384190318    -12664.576695883         0.340555681
       369          738.000000        29.020856912       218.199480297    -12695.706117316    -12664.721363753         0.142387867
       207          414.000000        23.647915377       177.801877495    -12689.813161327    -12664.618763420         1.331224432
        18           36.000000        18.376993446       138.171330759    -12683.393028617    -12664.587356986         1.490698428
        90          180.000000        35.833905910       269.424837119    -12701.839047445    -12664.945196048         1.323664318
        96          192.000000        26.655617567       200.415925614    -12692.435224103    -12664.691694292         0.650057585
       133          266.000000        23.407326000       175.992955130    -12689.220340456    -12664.621420673         0.251590810
       140          280.000000        26.183279964       196.864554963    -12692.049075214    -12664.666075206         0.607954138
       370          740.000000        31.772491985       238.888233376    -12698.574948698    -12664.806519033         0.158443334
        21           42.000000        24.400531687       183.460583168    -12689.351106406    -12664.723230348         0.700146870
       181          362.000000        30.950815142       232.710281406    -12697.214518601    -12664.768574677         1.571374350
       208          416.000000        24.050371158       180.827826812    -12690.237482295    -12664.629566289         0.319865136
       134          268.000000        27.430812149       206.244390822    -12693.391030020    -12664.724510871         0.314649968
       209          418.000000        26.540267070       199.548638387    -12692.832818098    -12664.693481481         0.186567747
        19           38.000000        17.485237519       131.466474303    -12682.375177351    -12664.564174321         0.448210735
       182          364.000000        34.410070362       258.719426950    -12700.844016306    -12664.881405354         0.243377677
       371          742.000000        33.974817485       255.446885696    -12700.870281620    -12664.873640980         0.414282392
        91          182.000000        32.143857591       241.680424612    -12698.006292074    -12664.842546482         0.551367012
       135          270.000000        32.169513238       241.873322047    -12698.306896275    -12664.852191286         0.232912419
        22           44.000000        29.824132321       224.239077170    -12694.899564965    -12664.856273445         0.510526563
       372          744.000000        34.571011360       259.929496046    -12701.491395044    -12664.892225265         0.175433818
       183          366.000000        36.521114341       274.591759751    -12703.061508924    -12664.949317065         0.217754157
        97          194.000000        31.520274444       236.991882192    -12697.508109800    -12664.813081200         0.673745084
       210          420.000000        30.175179957       226.878503431    -12696.619294594    -12664.790403411         0.314734407
        20           40.000000        19.746405047       148.467542915    -12684.619533159    -12664.614247644         0.310233528
        23           46.000000        34.072532217       256.181574672    -12699.256454282    -12664.964990157         0.168011320
        92          184.000000        27.452891129       206.410396325    -12693.147880799    -12664.720932864         0.334867191
       136          272.000000        35.754466290       268.827553454    -12702.028759425    -12664.956969319         0.339011154
        98          196.000000        35.808682773       269.235191604    -12701.977493564    -12664.929261699         0.245487142
       141          282.000000        23.937181348       179.976785169    -12689.730238768    -12664.593101505         0.924564034
       373          746.000000        33.213485556       249.722649786    -12700.081080164    -12664.855726477         0.359355444
        93          186.000000        23.534196180       176.946855539    -12689.104700395    -12664.623391893         0.202885965
       184          368.000000        36.197096839       272.155565303    -12702.735611875    -12664.943026247         0.494784995
        24           48.000000        35.612020942       267.756547833    -12700.832565997    -12665.003082951         0.448333411