#     Step Nr.          Time[fs]        Kin.[a.u.]          Temp[K]            Pot.[a.u.]        Cons Qty[a.u.]        UsedTime[s]
         0            0.000000         0.272187779       300.000000000     -1101.031005889     -1100.758818110         0.000000000
         1            0.500000         0.273748897       301.720633893     -1101.039289568     -1100.765540671        29.676100616
         2            1.000000         0.286804502       316.110263572     -1101.052553912     -1100.765749410         4.150712676
         3            1.500000         0.307435407       338.849240525     -1101.073673410     -1100.766238003         4.176583169
         4            2.000000         0.327796514       361.290850394     -1101.094614863     -1100.766818349         4.228127814
         5            2.500000         0.338776813       373.393120275     -1101.105932127     -1100.767155313         3.738999652
         6            3.000000         0.334790804       368.999819147     -1101.101815171     -1100.767024367         3.278854512
         7            3.500000         0.316947302       349.333063364     -1101.083423173     -1100.766475872         2.799723322
         8            4.000000         0.292267929       322.131945777     -1101.058072635     -1100.765804706         2.811371041
         9            4.500000         0.270116140       297.716680203     -1101.035410328     -1100.765294189         3.258762009
        10            5.000000         0.258319148       284.714268449     -1101.023374986     -1100.765055838         3.255040142
