#     Step Nr.          Time[fs]        Kin.[a.u.]          Temp[K]            Pot.[a.u.]        Cons Qty[a.u.]        UsedTime[s]
         0            0.000000         0.272187779       300.000000000     -1101.031005890     -1100.758818111         0.000000000
         1            0.500000         0.273748897       301.720633889     -1101.039289568     -1100.765540671        77.660338031
         2            1.000000         0.286804502       316.110263567     -1101.052553912     -1100.765749410        12.230430880
         3            1.500000         0.307435407       338.849240520     -1101.073673410     -1100.766238003        12.302998779
         4            2.000000         0.327796514       361.290850390     -1101.094614863     -1100.766818349        12.400577235
         5            2.500000         0.338776813       373.393120274     -1101.105932127     -1100.767155313        11.301842274
         6            3.000000         0.334790804       368.999819148     -1101.101815171     -1100.767024367        10.287740986
         7            3.500000         0.316947302       349.333063366     -1101.083423173     -1100.766475872         9.163405831
         8            4.000000         0.292267929       322.131945778     -1101.058072635     -1100.765804706         9.167341391
         9            4.500000         0.270116140       297.716680204     -1101.035410328     -1100.765294189        10.253369206
        10            5.000000         0.258319148       284.714268449     -1101.023374986     -1100.765055838        10.227770154
