#     Step Nr.          Time[fs]        Kin.[a.u.]          Temp[K]            Pot.[a.u.]        Cons Qty[a.u.]        UsedTime[s]
         0            0.000000        39.900448259       300.000000000    -12704.580765675    -12664.671840919         0.000000000
       842         1684.000000        32.196068774       242.072985485    -12698.166553758    -12664.733336345         0.152010597
       515         1030.000000        32.167255554       241.856347166    -12699.009039139    -12664.808450522         0.210414756
       856         1712.000000        29.558761404       222.243829539    -12695.329704539    -12664.644571251         0.212041915
       203          406.000000        35.104678090       263.941982779    -12701.765487126    -12664.926156158         0.316345888
       857         1714.000000        28.944438392       217.624911413    -12694.683848936    -12664.623345480         0.135793644
         1            2.000000        40.649619429       305.632802664    -12705.386302297    -12664.705029672         0.782017268
       516         1032.000000        30.170035961       226.839827203    -12696.912990816    -12664.744512519         0.385733446
       843         1686.000000        32.539022835       244.651558482    -12698.525432426    -12664.743628377         0.424512543
       204          408.000000        32.583729428       244.987694499    -12699.122025389    -12664.850098095         0.317212506
         2            4.000000        42.456814641       319.220583932    -12707.328189551    -12664.791539011         0.210973500
       858         1716.000000        29.192995075       219.493737657    -12694.943478259    -12664.630947533         0.314585176
       844         1688.000000        31.899095356       239.840127728    -12697.858924641    -12664.725797419         0.232143238
       859         1718.000000        30.188416541       226.978025502    -12695.986058879    -12664.663032292         0.163098817
       517         1034.000000        28.274452901       212.587483111    -12694.927604998    -12664.681956558         0.353339768
       205          410.000000        28.895117903       217.254084838    -12695.271129299    -12664.750425901         0.375683215
         3            6.000000        44.077372619       331.405093501    -12709.102642919    -12664.894089117         0.364203005
       845         1690.000000        30.490155384       229.246713115    -12696.391386410    -12664.687707211         0.225660322
         4            8.000000        44.067864357       331.333603612    -12709.190741669    -12664.962682375         0.155205479
       518         1036.000000        27.426180530       206.209567015    -12694.044727611    -12664.653374363         0.270682303
       206          412.000000        25.488314681       191.639310788    -12691.723925212    -12664.663810976         0.304977863
         5           10.000000        41.521666949       312.189477268    -12706.628753329    -12664.956856519         0.143766788
       846         1692.000000        28.837750784       216.822757960    -12694.670612414    -12664.644502718         0.263762752
       207          414.000000        23.647915377       177.801877495    -12689.813161327    -12664.618763420         0.238011986
       519         1038.000000        28.053155212       210.923609408    -12694.711693816    -12664.673887211         0.380155626
       847         1694.000000        27.556993500       207.193112125    -12693.335944835    -12664.612005798         0.401587902
       208          416.000000        24.050371158       180.827826812    -12690.237482295    -12664.629566289         0.196216353
         6           12.000000        36.639465828       275.481610561    -12701.614504324    -12664.870909297         0.433519686
       861         1722.000000        32.315605771       242.971749801    -12698.213433159    -12664.729896258         0.662348908
       520         1040.000000        29.845493503       224.399685757    -12696.599941540    -12664.732229765         0.324036116
       862         1724.000000        32.369481350       243.376824795    -12698.271909254    -12664.732518756         0.198244031
       209          418.000000        26.540267070       199.548638387    -12692.832818098    -12664.693481481         0.343236735
       848         1696.000000        27.114650072       203.867259058    -12692.871592879    -12664.601286239         0.388591544
         7           14.000000        30.785090487       231.464245374    -12695.574868015    -12664.742765609         0.426002153
       849         1698.000000        27.660184778       207.968977679    -12693.432282878    -12664.615589840         0.196313216
         8           16.000000        25.919815261       194.883639600    -12690.572119943    -12664.634616175         0.224993102
       521         1042.000000        31.917499206       239.978500985    -12698.777541189    -12664.797850285         0.477886373
       210          420.000000        30.175179957       226.878503431    -12696.619294594    -12664.790403411         0.352984013
       863         1726.000000        31.505231613       236.878779475    -12697.372843643    -12664.709692948         0.377372815
       850         1700.000000        28.975990713       217.862144247    -12694.792164430    -12664.649626187         0.157078292
       211          422.000000        33.540735699       252.183149532    -12700.125894306    -12664.886176048         0.199125747
       851         1702.000000        30.558989942       229.764260371    -12696.429138586    -12664.691062074         0.201713331
       864         1728.000000        30.015320096       225.676563094    -12695.821773132    -12664.670808512         0.245397888
       212          424.000000        35.273728721       265.213025873    -12701.931497809    -12664.941864312         0.136790171
         9           18.000000        23.691594669       178.130289528    -12688.341012321    -12664.598227917         0.392798318
       522         1044.000000        33.253016256       250.019869757    -12700.179591853    -12664.838597966         0.402296582
       865         1730.000000        28.445218508       213.871420622    -12694.186080137    -12664.630430241         0.163556400
       852         1704.000000        31.809181879       239.164094146    -12697.719764620    -12664.724187588         0.199726454
       523         1046.000000        33.183856938       249.499880722    -12700.110071253    -12664.836786315         0.171180828
       524         1048.000000        31.666202990       238.089076980    -12698.527896816    -12664.794993833         0.124147153
       213          426.000000        34.639958746       260.447891627    -12701.266824640    -12664.929567213         0.369326517
        10           20.000000        24.667703187       185.469368870    -12689.478124791    -12664.649596439         0.371793704
       866         1732.000000        27.376421954       205.835446588    -12693.069346181    -12664.602741917         0.338388974
       853         1706.000000        32.265970292       242.598554903    -12698.184379304    -12664.735448642         0.336789216
       525         1050.000000        29.260337598       220.000066733    -12696.021152079    -12664.731443425         0.134688297
       867         1734.000000        27.210241414       204.585982877    -12692.887687124    -12664.597122417         0.137517158
       526         1052.000000        26.870805917       202.033864956    -12693.533152458    -12664.670416819         0.169890288
       854         1708.000000        31.806025324       239.140360916    -12697.693622410    -12664.719536544         0.229321271
       868         1736.000000        28.022847409       210.695733750    -12693.720305316    -12664.615565439         0.152517561
       214          428.000000        31.925555964       240.039077433    -12698.427414055    -12664.849760864         0.354077864
        11           22.000000        28.084313004       211.157875889    -12693.178695774    -12664.764899631         0.355696487
       527         1054.000000        25.384909168       190.861834461    -12691.986032475    -12664.633163114         0.203647146
       855         1710.000000        30.712069820       230.915223966    -12696.541846272    -12664.683353998         0.296909914
        12           24.000000        32.189980902       242.027212528    -12697.598883016    -12664.893747593         0.248362511
       869         1738.000000        29.534055172       222.058070481    -12695.277419504    -12664.652051471         0.381996299
       215          430.000000        28.397286612       213.511034469    -12694.738365996    -12664.738409866         0.388664824
       528         1056.000000        25.348770517       190.590118330    -12691.945924862    -12664.631914991         0.284468402
        13           26.000000        34.995511128       263.121187770    -12700.644769266    -12664.981373093         0.329792403
       870         1740.000000        31.200368455       234.586601032    -12696.996177608    -12664.693926987         0.296347392
       529         1058.000000        26.778314758       201.338450517    -12693.428591347    -12664.667092580         0.352890873
        14           28.000000        35.097428422       263.887474607    -12700.838645619    -12664.991800143         0.193022359
       857         1714.000000        28.944438392       217.624911413    -12694.683848936    -12664.623345480         0.419115730
       216          432.000000        25.751061306       193.614827124    -12691.979028737    -12664.652928250         0.427429988
       530         1060.000000        29.152914445       219.192382927    -12695.893263780    -12664.727117471         0.140544286
       871         1742.000000        32.409216365       243.675580950    -12698.241189805    -12664.725470506         0.253049005
       217          434.000000        25.268547283       189.986942900    -12691.494792777    -12664.640143543         0.165819620
       858         1716.000000        29.192995075       219.493737657    -12694.943478259    -12664.630947533         0.203150599
        15           30.000000        32.228560906       242.317284488    -12697.897088803    -12664.922381306         0.262896072
       531         1062.000000        31.594712848       237.551563157    -12698.427626619    -12664.790900885         0.231237860
       872         1744.000000        32.716446713       245.985557617    -12698.550636542    -12664.733470814         0.219195641
       532         1064.000000        33.190431869       249.549315738    -12700.080692691    -12664.833798680         0.130550605
       218          436.000000        27.140937140       204.064903966    -12693.482491593    -12664.706891419         0.282530478
       859         1718.000000        30.188416541       226.978025502    -12695.986058879    -12664.663032292         0.274484937
        16           32.000000        27.319884111       205.410354798    -12692.792589265    -12664.802090147         0.280995253
       533         1066.000000        33.358569001       250.813490500    -12700.244858498    -12664.837024285         0.142696402
       873         1746.000000        32.040045216       240.899889205    -12697.838334982    -12664.713447017         0.256509554
       860         1720.000000        31.436757313       236.363940899    -12697.293174663    -12664.702580204         0.195487239
       219          438.000000        30.370204888       228.344839824    -12696.887571614    -12664.815711629         0.211491826
        17           34.000000        22.089915861       166.087727017    -12687.319076195    -12664.676078938         0.229658288
       220          440.000000        33.307460090       250.429217296    -12699.976080867    -12664.909042620         0.194066471
       534         1068.000000        32.117885318       241.485146558    -12698.938016131    -12664.797670220         0.351986765
       874         1748.000000        30.717887587       230.958966086    -12696.455477363    -12664.673499155         0.356014432
        18           36.000000        18.376993446       138.171330759    -12683.393028617    -12664.587356986         0.297140993
       875         1750.000000        29.377481896       220.880841029    -12695.056179711    -12664.632327231         0.205004120
       535         1070.000000        30.113401759       226.414010919    -12696.833949604    -12664.733327278         0.242464971
       221          442.000000        34.492781145       259.341305554    -12701.221242829    -12664.942747558         0.394754030
       861         1722.000000        32.315605771       242.971749801    -12698.213433159    -12664.729896258         0.622409302
        19           38.000000        17.485237519       131.466474303    -12682.375177351    -12664.564174321         0.260424820
       222          444.000000        33.321193470       250.532474632    -12699.999038273    -12664.905855647         0.147218036
       223          446.000000        30.236849537       227.342179272    -12696.782804150    -12664.818749312         0.121235554
       876         1752.000000        28.653294071       215.435880963    -12694.302260238    -12664.610435923         0.369023466
       536         1072.000000        28.342672036       213.100403177    -12694.977673018    -12664.675755241         0.359123773
       862         1724.000000        32.369481350       243.376824795    -12698.271909254    -12664.732518756         0.345086540
       224          448.000000        26.458392045       198.933043610    -12692.848424847    -12664.718054012         0.134478573
        20           40.000000        19.746405047       148.467542915    -12684.619533159    -12664.614247644         0.373840464
       863         1726.000000        31.505231613       236.878779475    -12697.372843643    -12664.709692948         0.137524095
       877         1754.000000        28.882468791       217.158979796    -12694.544162859    -12664.618818591         0.285876190
       537         1074.000000        27.683054146       208.140925887    -12694.289167870    -12664.654617017         0.292658113
       864         1728.000000        30.015320096       225.676563094    -12695.821773132    -12664.670808512         0.134725705
       225          450.000000        23.442421461       176.256827808    -12689.712570231    -12664.640298091         0.311603123
       538         1076.000000        28.456455791       213.955910517    -12695.104989393    -12664.680709238         0.215729577
       878         1756.000000        29.941216340       225.119398250    -12695.649757278    -12664.652687864         0.261471975
       865         1730.000000        28.445218508       213.871420622    -12694.186080137    -12664.630430241         0.235361358
       226          452.000000        22.329238838       167.887127681    -12688.558685659    -12664.610928301         0.170530832
        21           42.000000        24.400531687       183.460583168    -12689.351106406    -12664.723230348         0.593582174
       879         1758.000000        31.312031946       235.426166720    -12697.076237198    -12664.694507544         0.233554573
       539         1078.000000        30.270595050       227.595902088    -12697.011454678    -12664.739892640         0.340369200
        22           44.000000        29.824132321       224.239077170    -12694.899564965    -12664.856273445         0.206819658
       227          454.000000        23.548274258       177.052704562    -12689.831276491    -12664.639078797         0.381378375
       866         1732.000000        27.376421954       205.835446588    -12693.069346181    -12664.602741917         0.400442874
       880         1760.000000        32.340504310       243.158954759    -12698.140543822    -12664.723854365         0.252903332
       540         1080.000000        32.223617409       242.280115757    -12699.061347273    -12664.801664803         0.219581394
        23           46.000000        34.072532217       256.181574672    -12699.256454282    -12664.964990157         0.272107033
       867         1734.000000        27.210241414       204.585982877    -12692.887687124    -12664.597122417         0.250760366
       229          458.000000        30.568424198       229.835193832    -12697.148856510    -12664.816926710         0.258139723
       881         1762.000000        32.540882015       244.665537119    -12698.339027148    -12664.727641916         0.498131494
       541         1082.000000        33.351654292       250.761500795    -12700.245517759    -12664.836127826         0.470497763
        24           48.000000        35.612020942       267.756547833    -12700.832565997    -12665.003082951         0.352069784
       868         1736.000000        28.022847409       210.695733750    -12693.720305316    -12664.615565439         0.341256925
       230          460.000000        33.758885859       253.823357872    -12700.479816978    -12664.905111285         0.180141064
       869         1738.000000        29.534055172       222.058070481    -12695.277419504    -12664.652051471         0.158994532
       882         1764.000000        31.800212676       239.096657289    -12697.558691289    -12664.705131167         0.288311421
       542         1084.000000        33.076757632       248.694631835    -12699.962044156    -12664.828348883         0.284211627
       231          462.000000        35.004353664       263.187672260    -12701.784265841    -12664.943773176         0.235812602
       543         1086.000000        31.443018206       236.411014749    -12698.260350576    -12664.782938370         0.230389351
       232          464.000000        33.831132262       254.366557807    -12700.560148085    -12664.911689437         0.175077180
       883         1766.000000        30.402437987       228.587191223    -12696.099229318    -12664.666339734         0.308271816
        26           52.000000        30.137231215       226.593177749    -12695.203919697    -12664.823419874         0.344963545
       870         1740.000000        31.200368455       234.586601032    -12696.996177608    -12664.693926987         0.433879693
       544         1088.000000        29.064547673       218.527978565    -12695.783176949    -12664.719117552         0.210696480
       545         1090.000000        26.849033611       201.870165247    -12693.476215222    -12664.661234038         0.183644639
       546         1092.000000        25.634565282       192.738927010    -12692.210407199    -12664.629783664         0.123649000
       233          466.000000        30.821555034       231.738411814    -12697.408440096    -12664.818538764         0.548692256
       884         1768.000000        28.888930315       217.207562140    -12694.525425647    -12664.626443579         0.538455967
        27           54.000000        25.993828950       195.440127253    -12690.995833659    -12664.686919883         0.533155240
       871         1742.000000        32.409216365       243.675580950    -12698.241189805    -12664.725470506         0.546511113
       885         1770.000000        27.834714269       209.281214752    -12693.433935361    -12664.599678388         0.191848020
       872         1744.000000        32.716446713       245.985557617    -12698.550636542    -12664.733470814         0.177944557
        28           56.000000        23.643742473       177.770502627    -12688.704914895    -12664.609771204         0.238535753
       234          468.000000        27.437308635       206.293236033    -12693.855915495    -12664.707343854         0.399657395
       886         1772.000000        27.632672337       207.762119549    -12693.230187614    -12664.594872193         0.216547823
       548         1096.000000        27.487197732       206.668337817    -12694.129206445    -12664.676705230         0.417774684
        29           58.000000        24.270347543       182.481766011    -12689.548740519    -12664.632503625         0.202069702
       873         1746.000000        32.040045216       240.899889205    -12697.838334982    -12664.713447017         0.343690537
       549         1098.000000        29.852076053       224.449178061    -12696.585648893    -12664.739527923         0.137285462
       887         1774.000000        28.356741876       213.206190258    -12693.987972134    -12664.613243873         0.265901392
       235          470.000000        25.367145602       190.728275318    -12691.674120240    -12664.635465939         0.293667469
        30           60.000000        27.567566747       207.272609333    -12693.174847190    -12664.742282291         0.289128080
       888         1776.000000        29.741053915       223.614434525    -12695.428890056    -12664.648319837         0.236242434
       236          472.000000        25.687108355       193.133983272    -12691.994464624    -12664.641599842         0.323112688
       550         1100.000000        32.053488891       241.000968336    -12698.874306378    -12664.801103752         0.436424866
       874         1748.000000        30.717887587       230.958966086    -12696.455477363    -12664.673499155         0.443443818
        31           62.000000        31.917754237       239.980418493    -12697.857442407    -12664.881298561         0.323886739
       889         1778.000000        31.277558091       235.166967712    -12697.023878322    -12664.687769973         0.203529491
        32           64.000000        35.225725620       264.852104359    -12701.385502755    -12664.980452281         0.203289334
       890         1780.000000        32.402746123       243.626933059    -12698.186731540    -12664.717081847         0.260222256
       551         1102.000000        33.212798399       249.717483248    -12700.079721342    -12664.836432772         0.339654256
       237          474.000000        28.301266865       212.789089597    -12694.717026219    -12664.721835097         0.530074518
       875         1750.000000        29.377481896       220.880841029    -12695.056179711    -12664.632327231         0.534371607
       552         1104.000000        32.861466508       247.075919763    -12699.710637458    -12664.828533021         0.235518422
        33           66.000000        35.933082174       270.170514935    -12702.132876362    -12664.995944756         0.349604078
       876         1752.000000        28.653294071       215.435880963    -12694.302260238    -12664.610435923         0.145107894
       891         1782.000000        32.715000653       245.974685106    -12698.499712479    -12664.724653681         0.367083599
       238          476.000000        31.996897111       240.575471012    -12698.569875922    -12664.833083635         0.208955612
        34           68.000000        33.686033819       253.275604328    -12699.751871295    -12664.927026838         0.296257133
       553         1106.000000        31.180102149       234.434224501    -12697.951997676    -12664.778481397         0.396757156
       892         1784.000000        32.143667339       241.678994163    -12697.889825397    -12664.707009092         0.380013617
        35           70.000000        29.385727426       220.942836801    -12695.210557108    -12664.808576565         0.189141532
       877         1754.000000        28.882468791       217.158979796    -12694.544162859    -12664.618818591         0.447145946
       239          478.000000        35.069531557       263.677726097    -12701.769737805    -12664.919838118         0.450311695
       554         1108.000000        28.964341742       217.774558978    -12695.633196709    -12664.708732189         0.273173339
       893         1786.000000        30.992541477       233.024009729    -12696.675036701    -12664.671732134         0.201943539
        36           72.000000        24.704703796       185.747565814    -12690.273194828    -12664.689268651         0.261576272
       878         1756.000000        29.941216340       225.119398250    -12695.649757278    -12664.652687864         0.236109480
       240          480.000000        36.143528593       271.752801066    -12702.883914704    -12664.943836522         0.212269932
       555         1110.000000        27.281200718       205.119505483    -12693.870547077    -12664.654184365         0.265408973
       556         1112.000000        26.954109937       202.660203930    -12693.526689045    -12664.643435839         0.129801825
       894         1788.000000        29.818385929       224.195871703    -12695.438209668    -12664.635487065         0.390112612
        37           74.000000        21.372637494       160.694717176    -12686.750062937    -12664.610882186         0.371714494
       557         1114.000000        28.146293266       211.623887660    -12694.771800967    -12664.681878314         0.128190710
       879         1758.000000        31.312031946       235.426166720    -12697.076237198    -12664.694507544         0.442011077
       895         1790.000000        29.179249936       219.390391913    -12694.763745026    -12664.616401427         0.249909848
        38           76.000000        20.540860392       154.440824266    -12685.839619178    -12664.596755104         0.210702987
       880         1760.000000        32.340504310       243.158954759    -12698.140543822    -12664.723854365         0.186288441
       558         1116.000000        30.280762633       227.672349221    -12696.999978865    -12664.748784078         0.256876592
       241          482.000000        34.758647993       261.340281950    -12701.440015528    -12664.898950556         0.687766207
       242          484.000000        31.490678745       236.769360646    -12698.044426921    -12664.807620256         0.155163293
       559         1118.000000        32.338826663       243.146341016    -12699.144954866    -12664.810284691         0.194506146
       896         1792.000000        29.366455058       220.797933407    -12694.956076507    -12664.624230287         0.308099610
        39           78.000000        22.416082931       168.540083452    -12687.754552524    -12664.648542465         0.317405104
       243          486.000000        27.639041355       207.810006364    -12694.050790243    -12664.706563400         0.136540449
       881         1762.000000        32.540882015       244.665537119    -12698.339027148    -12664.727641916         0.416861152
       244          488.000000        24.682044590       185.577197753    -12690.992262033    -12664.631685368         0.151726506
        40           80.000000        26.228983905       197.208189758    -12691.693412415    -12664.747581561         0.257949828
       882         1764.000000        31.800212676       239.096657289    -12697.558691289    -12664.705131167         0.161660131
       560         1120.000000        33.356551501       250.798321500    -12700.202176209    -12664.838266437         0.386584112
       897         1794.000000        30.261473396       227.527318989    -12695.889451550    -12664.654641688         0.427746016
       245          490.000000        23.728184613       178.405398797    -12690.014846048    -12664.607619342         0.337811262
       883         1766.000000        30.402437987       228.587191223    -12696.099229318    -12664.666339734         0.294378496
       898         1796.000000        31.398436092       236.075814653    -12697.074634166    -12664.691773021         0.210441810
        41           82.000000        30.521598592       229.483125559    -12696.138993809    -12664.859275273         0.483892399
       899         1798.000000        32.196778690       242.078323144    -12697.904221233    -12664.717120811         0.253233719
       561         1122.000000        32.849797158       246.988181275    -12699.671776413    -12664.822672612         0.531881880
       246          492.000000        25.132982518       188.967670402    -12691.484139684    -12664.642357245         0.396169927
        42           84.000000        33.678379308       253.218052259    -12699.407946735    -12664.941743419         0.261764147
       900         1800.000000        32.237333657       242.383244279    -12697.941990782    -12664.718853450         0.170415391
       884         1768.000000        28.888930315       217.207562140    -12694.525425647    -12664.626443579         0.437967860
       247          494.000000        28.374523219       213.339883067    -12694.858258897    -12664.725468251         0.163613281
       562         1124.000000        30.982283483       232.946882821    -12697.729442878    -12664.772291224         0.263327857
       885         1770.000000        27.834714269       209.281214752    -12693.433935361    -12664.599678388         0.179930510
        43           86.000000        34.555935662       259.816146213    -12700.305288193    -12664.959996105         0.277310866
       886         1772.000000        27.632672337       207.762119549    -12693.230187614    -12664.594872193         0.133064285
       563         1126.000000        28.451856318       213.921328404    -12695.103583156    -12664.707621880         0.254370200
        44           88.000000        32.990212766       248.043925861    -12698.655929810    -12664.902731154         0.155100928
       248          496.000000        32.218719676       242.243291109    -12698.857566839    -12664.829369036         0.403913978
       887         1774.000000        28.356741876       213.206190258    -12693.987972134    -12664.613243873         0.218220572
       564         1128.000000        26.191351051       196.925239143    -12692.762572247    -12664.651778551         0.184442167
        45           90.000000        29.936089528       225.080851232    -12695.455656420    -12664.793125053         0.201112138