#     Step Nr.          Time[fs]        Kin.[a.u.]          Temp[K]            Pot.[a.u.]        Cons Qty[a.u.]        UsedTime[s]
         0            0.000000        39.900448259       300.000000000    -12704.580765675    -12664.671840919         0.000000000
       410          820.000000        33.459488111       251.572272277    -12700.498633900    -12664.876696884         0.145790547
       411          822.000000        31.547112169       237.193667337    -12698.504170959    -12664.820094913         0.131263206
         1            2.000000        40.649619429       305.632802664    -12705.386302297    -12664.705029672         0.796485854
       709         1418.000000        30.554736115       229.732277071    -12696.945778871    -12664.723560810         0.260051236
       412          824.000000        28.535188560       214.547879575    -12695.362512881    -12664.737366110         0.139685281
       710         1420.000000        32.122861949       241.522564414    -12698.587585297    -12664.771528491         0.157901626
       413          826.000000        25.607669852       192.536708004    -12692.308208970    -12664.660685428         0.183639144
       414          828.000000        23.883930972       179.576410904    -12690.504127782    -12664.616252587         0.157088768
       415          830.000000        24.015272351       180.563928975    -12690.625390977    -12664.617656027         0.110892470
       416          832.000000        25.971371741       195.271277950    -12692.640737127    -12664.663708437         0.118298817
       711         1422.000000        32.783782485       246.491835928    -12699.277096906    -12664.789993704         0.495703800
         3            6.000000        44.077372619       331.405093501    -12709.102642919    -12664.894089117         0.505912269
       417          834.000000        29.057513640       218.475091700    -12695.831103467    -12664.739248993         0.128198926
       418          836.000000        32.151005306       241.734166228    -12699.033081232    -12664.818464840         0.126355365
       712         1424.000000        32.202974539       242.124907948    -12698.668724059    -12664.772206901         0.311827088
       419          838.000000        34.099664821       256.385576927    -12701.049856914    -12664.871452791         0.217494387
       420          840.000000        34.172839140       256.935753592    -12701.118852282    -12664.874564829         0.127078140
         5           10.000000        41.521666949       312.189477268    -12706.628753329    -12664.956856519         0.492537040
       713         1426.000000        30.586883434       229.973983520    -12696.981886052    -12664.727281277         0.508167446
         6           12.000000        36.639465828       275.481610561    -12701.614504324    -12664.870909297         0.135942951
       421          842.000000        32.402740739       243.626892579    -12699.269306208    -12664.822452289         0.358082824
       714         1428.000000        28.561292427       214.744147050    -12694.870511762    -12664.673631328         0.149501509
         7           14.000000        30.785090487       231.464245374    -12695.574868015    -12664.742765609         0.130811779
         8           16.000000        25.919815261       194.883639600    -12690.572119943    -12664.634616175         0.119877903
       715         1430.000000        26.901364335       202.263624917    -12693.140651760    -12664.630834352         0.243778031
       422          844.000000        29.640144924       222.855728824    -12696.385278575    -12664.735581789         0.260923753
         9           18.000000        23.691594669       178.130289528    -12688.341012321    -12664.598227917         0.136533312
        10           20.000000        24.667703187       185.469368870    -12689.478124791    -12664.649596439         0.127828981
       423          846.000000        27.228257749       204.721442519    -12693.869096348    -12664.655217948         0.347278733
       716         1432.000000        26.235024588       197.253607916    -12692.443094749    -12664.613230197         0.356638286
       424          848.000000        26.384873759       198.380280757    -12692.994979641    -12664.623546557         0.235653328
       717         1434.000000        26.821167292       201.660646400    -12693.044961867    -12664.626257964         0.324303951
        12           24.000000        32.189980902       242.027212528    -12697.598883016    -12664.893747593         0.330064839
       425          850.000000        27.587048449       207.419086652    -12694.261265440    -12664.658802558         0.126092810
       718         1436.000000        28.463662338       214.010094478    -12694.741894360    -12664.665390036         0.135968696
        13           26.000000        34.995511128       263.121187770    -12700.644769266    -12664.981373093         0.218074370
       719         1438.000000        30.580230403       229.923961290    -12696.929698171    -12664.717357860         0.119774630
       426          852.000000        30.309467597       227.888173588    -12697.114520701    -12664.743140386         0.234749225
        14           28.000000        35.097428422       263.887474607    -12700.838645619    -12664.991800143         0.135080937
        15           30.000000        32.228560906       242.317284488    -12697.897088803    -12664.922381306         0.122389284
       427          854.000000        33.283386275       250.248213197    -12700.223914551    -12664.833295351         0.251550928
       720         1440.000000        32.406576675       243.655733881    -12698.815300698    -12664.763611492         0.265575948
        16           32.000000        27.319884111       205.410354798    -12692.792589265    -12664.802090147         0.129706892
        17           34.000000        22.089915861       166.087727017    -12687.319076195    -12664.676078938         0.122728336
       428          856.000000        35.126985000       264.109702022    -12702.145944698    -12664.885934226         0.307342164
        18           36.000000        18.376993446       138.171330759    -12683.393028617    -12664.587356986         0.114262251
       429          858.000000        34.989783408       263.078122691    -12701.998919448    -12664.879430275         0.138816852
        19           38.000000        17.485237519       131.466474303    -12682.375177351    -12664.564174321         0.193987201
       430          860.000000        32.892546694       247.309602744    -12699.812717650    -12664.820174644         0.123489453
       721         1442.000000        33.279096038       250.215956143    -12699.709312904    -12664.786015194         0.575178570
        20           40.000000        19.746405047       148.467542915    -12684.619533159    -12664.614247644         0.143090348
       431          862.000000        29.655424949       222.970614946    -12696.446846734    -12664.734642141         0.294654853
       722         1444.000000        32.905041381       247.403546704    -12699.306936335    -12664.774107401         0.289445712
       432          864.000000        26.516126312       199.367130969    -12693.188998730    -12664.655717205         0.153002108
       723         1446.000000        31.509485335       236.910761987    -12697.842512803    -12664.731468836         0.213385935
       433          866.000000        24.636756390       185.236688800    -12691.243150746    -12664.610709909         0.127450868
       724         1448.000000        29.768758683       223.822738709    -12696.022218359    -12664.676975649         0.145450238
       434          868.000000        24.684934928       185.598929375    -12691.298239177    -12664.614007719         0.148843189
       725         1450.000000        28.520850681       214.440077188    -12694.722433684    -12664.637549840         0.131629522
       435          870.000000        26.610145720       200.074035866    -12693.299404297    -12664.664063143         0.149806085
       726         1452.000000        28.365987648       213.275706558    -12694.570762170    -12664.634111698         0.159390938
       436          872.000000        29.667493292       223.061353341    -12696.473471429    -12664.743874730         0.145279085
       727         1454.000000        29.361370212       220.759701908    -12695.624745906    -12664.668974298         0.150756217
       437          874.000000        32.680792859       245.717486532    -12699.600262333    -12664.825041126         0.148052092
       728         1456.000000        30.987542918       232.986426996    -12697.337007290    -12664.723971186         0.146030626
       438          876.000000        34.476580830       259.219500039    -12701.460817424    -12664.876007633         0.151857446
       729         1458.000000        32.411861168       243.695466459    -12698.833841751    -12664.771126168         0.170730471
       439          878.000000        34.355868304       258.311897260    -12701.326952749    -12664.874022401         0.163028760
       730         1460.000000        32.899287066       247.360281665    -12699.347346789    -12664.788099511         0.141650858
       440          880.000000        32.420093263       243.757361219    -12699.302651339    -12664.817293334         0.142152784
       731         1462.000000        32.149561439       241.723310204    -12698.567079855    -12664.768347552         0.148155643
       732         1464.000000        30.407953980       228.628664391    -12696.752266952    -12664.721648952         0.145645301
       733         1466.000000        28.332407689       213.023228501    -12694.589919545    -12664.667457356         0.106449198
       441          882.000000        29.576025359       222.373632250    -12696.333010953    -12664.730334545         0.403221030
       734         1468.000000        26.708541650       200.813846581    -12692.896910895    -12664.626164462         0.106736155
       442          884.000000        27.155040154       204.170940473    -12693.809045490    -12664.655562534         0.139067363
       735         1470.000000        26.142290660       196.556368166    -12692.301480367    -12664.612095324         0.149128118
       443          886.000000        26.283393730       197.617281592    -12692.907821411    -12664.631481827         0.129636235
       736         1472.000000        26.839881765       201.801355143    -12693.016701320    -12664.629654652         0.140406096
       444          888.000000        27.321408236       205.421814254    -12694.002574639    -12664.669850201         0.147472211
       737         1474.000000        28.538628794       214.573745704    -12694.769988672    -12664.672539734         0.159068602
       445          890.000000        29.692634197       223.250380580    -12696.484323567    -12664.748651016         0.146150175
       738         1476.000000        30.603039582       230.095456952    -12696.902738331    -12664.725618738         0.148327459
       446          892.000000        32.200777017       242.108385409    -12699.098683448    -12664.826417966         0.152284489
       739         1478.000000        32.256345830       242.526191342    -12698.609433219    -12664.769263645         0.150466976
       447          894.000000        33.635968075       252.899174395    -12700.584728371    -12664.866406170         0.142996442
       740         1480.000000        32.877347320       247.195323022    -12699.244815662    -12664.785900735         0.148537596
       448          896.000000        33.327699414       250.581390953    -12700.251735452    -12664.853728384         0.146058823
       449          898.000000        31.388435494       236.000623030    -12698.226948863    -12664.797637802         0.137403187
       450          900.000000        28.597932446       215.019632820    -12695.328025194    -12664.722717060         0.114054210
       741         1482.000000        32.259626721       242.550859417    -12698.593536296    -12664.767538159         0.424846860
       451          902.000000        26.045593893       195.829332977    -12692.687653562    -12664.657037931         0.105675652
       742         1484.000000        30.720334096       230.977360679    -12696.985019778    -12664.721169590         0.146119310
       743         1486.000000        28.983973069       217.922161284    -12695.174137958    -12664.667850373         0.120246781
       452          904.000000        24.705695062       185.755018856    -12691.313440486    -12664.622857983         0.265910381
       744         1488.000000        27.862907837       209.493194085    -12694.008148896    -12664.633488795         0.127011883
       453          906.000000        25.092804641       188.665584498    -12691.733855413    -12664.631266469         0.153881589
       745         1490.000000        27.873597692       209.573568030    -12694.024707351    -12664.635127685         0.140212389
       454          908.000000        27.088003102       203.666908149    -12693.821067589    -12664.679961253         0.179292334
       746         1492.000000        28.986755036       217.943078094    -12695.189999789    -12664.671172047         0.143019187
       455          910.000000        29.974929217       225.372875680    -12696.829211201    -12664.753459528         0.146719265
       747         1494.000000        30.650019150       230.448682818    -12696.923823382    -12664.722468773         0.148231802
       456          912.000000        32.680736009       245.717059096    -12699.643137563    -12664.826198767         0.146023927
       457          914.000000        34.167235603       256.893622212    -12701.182867773    -12664.869667543         0.135754915
        21           42.000000        24.400531687       183.460583168    -12689.351106406    -12664.723230348         4.326954790
       458          916.000000        33.855908821       254.552845634    -12700.845330755    -12664.863481065         0.179007822
       459          918.000000        31.917040800       239.975054366    -12698.807834889    -12664.807063100         0.114294280
        22           44.000000        29.824132321       224.239077170    -12694.899564965    -12664.856273445         0.395331291
       460          920.000000        29.255935225       219.966966556    -12696.017151784    -12664.724764980         0.115650727
       750         1500.000000        31.948671456       240.212876170    -12698.249733595    -12664.755505910         0.410286426
       461          922.000000        27.135653020       204.025174186    -12693.796684054    -12664.657349934         0.415434644
       751         1502.000000        30.422145257       228.735364522    -12696.655101795    -12664.712387678         0.139703105
       752         1504.000000        28.608566511       215.099587297    -12694.768721106    -12664.663904934         0.121988424
       462          924.000000        26.573368588       199.797519187    -12693.212417675    -12664.640583111         0.267487451
        24           48.000000        35.612020942       267.756547833    -12700.832565997    -12665.003082951         0.279073291
       753         1506.000000        27.213277887       204.608813243    -12693.322859772    -12664.627886030         0.153935352
       754         1508.000000        26.769274491       201.270479347    -12692.868199983    -12664.616776781         0.118910001
       463          926.000000        27.820980381       209.177953593    -12694.525464098    -12664.683475966         0.346610601
        25           50.000000        33.993331923       255.586090433    -12699.161470764    -12664.948921796         0.340952826
       755         1510.000000        27.445320582       206.353475560    -12693.576573838    -12664.634223597         0.116137308
       464          928.000000        30.235180895       227.329633235    -12697.056221899    -12664.762351388         0.141834439
        26           52.000000        30.137231215       226.593177749    -12695.203919697    -12664.823419874         0.246934468
                                                                                                                                          465          930.000000        32.618790748       245.251310486    -12699.547033297    -12664.835681940         0.121262475
       466          932.000000        33.826586933       254.332382791    -12700.801526560    -12664.868320372         0.150746326
       467          934.000000        33.292642841       250.317810658    -12700.235800756    -12664.848237175         0.125095247
       468          936.000000        31.230643006       234.814226675    -12698.081761768    -12664.787778614         0.115272989
        27           54.000000        25.993828950       195.440127253    -12690.995833659    -12664.686919883         0.417366560
       757         1514.000000        30.817121322       231.705076007    -12697.081120943    -12664.722284676         0.423175930
       469          938.000000        28.473150420       214.081432636    -12695.212681421    -12664.713491287         0.153602813
       470          940.000000        26.086688878       196.138314353    -12692.739062409    -12664.653324960         0.121093725
       758         1516.000000        32.236639229       242.378023074    -12698.549472223    -12664.760494786         0.279185614
        28           56.000000        23.643742473       177.770502627    -12688.704914895    -12664.609771204         0.299725206
       471          942.000000        24.951114936       187.600260332    -12691.572215808    -12664.627199134         0.129571549
       472          944.000000        25.452144025       191.367354019    -12692.107979084    -12664.642336771         0.118264848
       759         1518.000000        32.713438487       245.962939627    -12699.032922520    -12664.773053941         0.322992567
       473          946.000000        27.366364478       205.759827312    -12694.109996871    -12664.692441231         0.114334021
        29           58.000000        24.270347543       182.481766011    -12689.548740519    -12664.632503625         0.325512886
       760         1520.000000        32.104715915       241.386129605    -12698.383489535    -12664.753833695         0.132844387
       474          948.000000        29.955797156       225.229027215    -12696.808735724    -12664.759772646         0.281763010
        30           60.000000        27.567566747       207.272609333    -12693.174847190    -12664.742282291         0.337326209
       475          950.000000        32.239048659       242.396138887    -12699.182402764    -12664.819944418         0.140926669
        31           62.000000        31.917754237       239.980418493    -12697.857442407    -12664.881298561         0.160465364
       761         1522.000000        30.740055027       231.125636697    -12696.946179793    -12664.710839587         0.393548731
       476          952.000000        33.360519815       250.828158114    -12700.339886436    -12664.849532657         0.148181810
       762         1524.000000        29.292100470       220.238882631    -12695.424901444    -12664.664420902         0.172395746
        32           64.000000        35.225725620       264.852104359    -12701.385502755    -12664.980452281         0.243988230
       763         1526.000000        28.469251923       214.052120958    -12694.561055426    -12664.638024732         0.129699488
       477          954.000000        32.937126293       247.644783933    -12699.882007292    -12664.835438021         0.254856567
        33           66.000000        35.933082174       270.170514935    -12702.132876362    -12664.995944756         0.158021026
        34           68.000000        33.686033819       253.275604328    -12699.751871295    -12664.927026838         0.122194233
       764         1528.000000        28.669043736       215.554298163    -12694.769726238    -12664.645475364         0.269870220
       478          956.000000        31.241035352       234.892363735    -12698.093929530    -12664.782638850         0.280924610
        35           70.000000        29.385727426       220.942836801    -12695.210557108    -12664.808576565         0.123186207
       479          958.000000        29.109351210       218.864843486    -12695.852976214    -12664.715080961         0.196486733
       765         1530.000000        29.776013779       223.877287689    -12695.927438048    -12664.682579738         0.219158240
        36           72.000000        24.704703796       185.747565814    -12690.273194828    -12664.689268651         0.162261629
       480          960.000000        27.578131480       207.352042526    -12694.246237502    -12664.666136603         0.160386157
       766         1532.000000        31.222136713       234.750270304    -12697.436892182    -12664.729406592         0.280304654
        37           74.000000        21.372637494       160.694717176    -12686.750062937    -12664.610882186         0.299661331
       767         1534.000000        32.276976396       242.681306639    -12698.533569579    -12664.762053799         0.128312598
        38           76.000000        20.540860392       154.440824266    -12685.839619178    -12664.596755104         0.161561189
       481          962.000000        27.387944030       205.922077760    -12694.050881432    -12664.661423771         0.359619212
       768         1536.000000        32.401880678       243.620426030    -12698.657557119    -12664.765441843         0.139303435
        39           78.000000        22.416082931       168.540083452    -12687.754552524    -12664.648542465         0.160711489
       769         1538.000000        31.483795720       236.717609158    -12697.695833135    -12664.739156994         0.164133336
       482          964.000000        28.610615267       215.114991304    -12695.340678416    -12664.703792600         0.226784022
        40           80.000000        26.228983905       197.208189758    -12691.693412415    -12664.747581561         0.176346038
       483          966.000000        30.608991873       230.140210516    -12697.444054335    -12664.771094951         0.154730913
       770         1540.000000        29.856567049       224.482944569    -12696.000614922    -12664.695040298         0.212933259
       484          968.000000        32.359322487       243.300443222    -12699.285278480    -12664.828952703         0.197786621
       771         1542.000000        28.135861252       211.545452344    -12694.214412465    -12664.650386586         0.240225169
       485          970.000000        32.956040987       247.786998078    -12699.916348124    -12664.849575085         0.142219577
        41           82.000000        30.521598592       229.483125559    -12696.138993809    -12664.859275273         0.459035612
       772         1544.000000        26.964038373       202.734852990    -12693.003966137    -12664.621036201         0.154453447
        42           84.000000        33.678379308       253.218052259    -12699.407946735    -12664.941743419         0.153067693
       486          972.000000        32.029825287       240.823048501    -12698.954093178    -12664.824525288         0.217134181
       773         1546.000000        26.770023969       201.276114461    -12692.811920321    -12664.616556559         0.177800586
       487          974.000000        29.888317859       224.721669782    -12696.723501716    -12664.765767803         0.135754711
        43           86.000000        34.555935662       259.816146213    -12700.305288193    -12664.959996105         0.203362122
       774         1548.000000        27.621354374       207.677023038    -12693.704938350    -12664.637948296         0.190976520
       775         1550.000000        29.206969010       219.598803657    -12695.357031979    -12664.677639944         0.147353153
       489          978.000000        25.406632447       191.025165550    -12692.057026150    -12664.645924025         0.454421246
       490          980.000000        24.799718931       186.461957296    -12691.423968810    -12664.629059860         0.115310084
       776         1552.000000        30.951644858       232.716519804    -12697.168681921    -12664.721640236         0.633427032
                                                                                                                                          492          984.000000        27.980664761       210.378574546    -12694.724843141    -12664.708902852         0.271183356
       493          986.000000        30.588091057       229.983063290    -12697.431214194    -12664.777093787         0.113219206
        46           92.000000        27.096409496       203.730113412    -12692.486935707    -12664.683726383         0.526915264
       494          988.000000        32.609044904       245.178034287    -12699.526212891    -12664.831285557         0.120564889
        47           94.000000        26.132830448       196.485239557    -12691.491903607    -12664.632703981         0.134674554
       495          990.000000        33.281219509       250.231921907    -12700.215470011    -12664.848964099         0.203613927
        48           96.000000        27.813540339       209.122014060    -12693.274521064    -12664.671362769         0.166755975
       778         1556.000000        32.595065439       245.072926709    -12698.853041424    -12664.761421640         0.292536020
       496          992.000000        32.397403834       243.586765924    -12699.282393564    -12664.821518144         0.157805556
        49           98.000000        31.563839869       237.319438102    -12697.225671995    -12664.782964047         0.157206303
       497          994.000000        30.419894074       228.718438527    -12697.209645478    -12664.760359260         0.160811841
       779         1558.000000        31.986448213       240.496908749    -12698.199530043    -12664.741271038         0.287288819
        50          100.000000        35.712341812       268.510831614    -12701.584368018    -12664.910079556         0.167523578
       780         1560.000000        30.744611369       231.159894516    -12696.886141035    -12664.702233047         0.135449067
       498          996.000000        28.297961888       212.764240429    -12694.990019732    -12664.693874031         0.244114683
        51          102.000000        38.323171727       288.140911189    -12704.318948912    -12664.988060591         0.177862562
        52          104.000000        38.144094234       286.794479000    -12704.125717627    -12664.980923600         0.207568065
       499          998.000000        27.041113101       203.314355713    -12693.679850056    -12664.654441837         0.223705168
       781         1562.000000        29.481988714       221.666597751    -12695.555465161    -12664.662791158         0.411488248
       500         1000.000000        27.241555985       204.821428137    -12693.897483214    -12664.661430538         0.157802953
        53          106.000000        35.159925351       264.357371047    -12701.002898085    -12664.895683063         0.185601000
       782         1564.000000        28.802130247       216.554937385    -12694.840446304    -12664.642410922         0.138522946
        54          108.000000        30.527189175       229.525159548    -12696.170370172    -12664.771443683         0.166045897
       783         1566.000000        29.011918741       218.132276757    -12695.061916101    -12664.651268060         0.162923573
        55          110.000000        26.021689817       195.649605104    -12691.484245501    -12664.657072240         0.147071688
       784         1568.000000        29.972753267       225.356515344    -12696.072370185    -12664.684470022         0.147360162
        56          112.000000        23.313769279       175.289529043    -12688.681164216    -12664.592102296         0.146868518
       785         1570.000000        31.173170608       234.382108238    -12697.333140699    -12664.724570834         0.150403802
        57          114.000000        23.362867871       175.658687238    -12688.753746186    -12664.596490935         0.149899153
       501         1002.000000        28.791013090       216.471350676    -12695.525900010    -12664.710444601         0.674968717
       786         1572.000000        31.985925682       240.492979988    -12698.185647521    -12664.751099072         0.146258125
        58          116.000000        26.103297130       196.263187028    -12691.629560921    -12664.667688048         0.162374153
        59          118.000000        30.479585330       229.167239917    -12696.209445102    -12664.782081203         0.120968960
       787         1574.000000        31.972576215       240.392609188    -12698.171430331    -12664.751142128         0.264727150
       502         1004.000000        30.944325532       232.661487900    -12697.781181936    -12664.776146856         0.304606587
       503         1006.000000        32.690058278       245.787150555    -12699.603916173    -12664.826636392         0.181847348
        60          120.000000        34.810940813       261.733456630    -12700.743576939    -12664.900147495         0.264246486
       788         1576.000000        31.081771316       233.694903237    -12697.238680695    -12664.724806625         0.323890274
       505         1010.000000        32.290700229       242.784492191    -12699.176762691    -12664.811141349         0.228385668
       789         1578.000000        29.657703886       222.987749617    -12695.748782275    -12664.683613684         0.249207720
       506         1012.000000        30.257713325       227.499048098    -12697.053853863    -12664.754391475         0.132603677