#     Step Nr.          Time[fs]        Kin.[a.u.]          Temp[K]            Pot.[a.u.]        Cons Qty[a.u.]        UsedTime[s]
         0            0.000000        39.900448259       300.000000000    -12704.580765669    -12664.671840913         0.000000000
       250          500.000000        35.953864266       270.326769510    -12702.742420339    -12664.944729201         0.371706595
         1            2.000000        40.649619429       305.632802664    -12705.386302297    -12664.705029671         1.339412790
        64          128.000000        29.906676868       224.859705896    -12695.639611632    -12664.773664391         0.729654715
       115          230.000000        27.539376068       207.060651723    -12693.385744910    -12664.714144849         0.689922165
        15           30.000000        32.228560906       242.317284488    -12697.897088803    -12664.922381305         0.783375495
         6           12.000000        36.639465828       275.481610561    -12701.614504324    -12664.870909297         0.805001920
       191          382.000000        30.115439087       226.429329005    -12696.452563298    -12664.779593050         0.770697835
         2            4.000000        42.456814641       319.220583932    -12707.328189551    -12664.791539011         0.366709881
       192          384.000000        34.205893590       257.184280500    -12700.696489930    -12664.891087355         0.351351496
         3            6.000000        44.077372619       331.405093501    -12709.102642919    -12664.894089117         0.396700902
       193          386.000000        36.582584634       275.053937213    -12703.158922885    -12664.961893812         0.257833435
         4            8.000000        44.067864357       331.333603612    -12709.190741669    -12664.962682375         0.382860083
       194          388.000000        36.274774168       272.739598807    -12702.828438995    -12664.958403680         0.325711259
       242          484.000000        31.490678745       236.769360646    -12698.044426920    -12664.807620256         4.670500103
        62          124.000000        37.184943943       279.582903694    -12703.247779564    -12664.978466716         4.728414820
       195          390.000000        33.430948337       251.357689920    -12699.858409136    -12664.876654770         0.327610658
         5           10.000000        41.521666949       312.189477268    -12706.628753329    -12664.956856519         0.409985026
       243          486.000000        27.639041355       207.810006364    -12694.050790243    -12664.706563400         0.249666541
        65          130.000000        26.051316478       195.872359449    -12691.595899258    -12664.658655072         1.496097723
       196          392.000000        29.345097635       220.637353082    -12695.600486736    -12664.751733598         0.272432128
         7           14.000000        30.785090487       231.464245374    -12695.574868015    -12664.742765609         1.603244292
        63          126.000000        34.265742252       257.634265388    -12700.201493802    -12664.899879561         0.400996043
       244          488.000000        24.682044590       185.577197753    -12690.992262033    -12664.631685368         0.276498161
        66          132.000000        24.441034458       183.765111855    -12689.895661381    -12664.611451851         0.404878143
         6           12.000000        36.639465828       275.481610561    -12701.614504324    -12664.870909297         0.506857621
       245          490.000000        23.728184613       178.405398797    -12690.014846048    -12664.607619342         0.209715098
       282          564.000000        24.151970376       181.591722128    -12690.556925392    -12664.618851528         4.485859325
       138          276.000000        34.612517485       260.241568670    -12700.831666932    -12664.935076901         4.507067405
        16           32.000000        27.319884111       205.410354798    -12692.792589265    -12664.802090147         2.028990297
        64          128.000000        29.906676868       224.859705896    -12695.639611632    -12664.773664391         0.419135989
         8           16.000000        25.919815261       194.883639600    -12690.572119943    -12664.634616175         0.522269999
       251          502.000000        34.288142848       257.802689024    -12701.000044116    -12664.899422109         2.925528292
        24           48.000000        35.612020942       267.756547833    -12700.832565997    -12665.003082951         3.275148581
        67          134.000000        25.782257303       193.849380858    -12691.279929900    -12664.656152658         0.703725258
       252          504.000000        30.914332804       232.435981194    -12697.472096998    -12664.795319500         0.205958105
       163          326.000000        32.189266216       242.021839011    -12698.520503663    -12664.875132906         4.806414630
        67          134.000000        25.782257303       193.849380858    -12691.279929900    -12664.656152658         4.839257884
       198          396.000000        24.732199722       185.954299777    -12690.844595359    -12664.613370437         0.770866609
       283          566.000000        23.584628614       177.326042512    -12689.983293462    -12664.609511455         0.783647802
        72          144.000000        33.658732176       253.070331128    -12699.430666452    -12664.889841768         4.511789949
       303          606.000000        25.311849289       190.312518235    -12691.849029498    -12664.670386253         4.459197594
         7           14.000000        30.785090487       231.464245374    -12695.574868015    -12664.742765609         0.920138758
        17           34.000000        22.089915861       166.087727017    -12687.319076195    -12664.676078938         0.832239734
         9           18.000000        23.691594669       178.130289528    -12688.341012321    -12664.598227917         0.737230439
       117          234.000000        36.029752130       270.897348543    -12702.196739150    -12664.947121258         1.046210484
       139          278.000000        30.438330826       228.857059163    -12696.479393853    -12664.805192728         0.972699491
       246          492.000000        25.132982518       188.967670402    -12691.484139684    -12664.642357245         1.044561727
       199          398.000000        26.276803527       197.567731749    -12692.505558558    -12664.670578004         0.294253402
        25           50.000000        33.993331923       255.586090433    -12699.161470764    -12664.948921796         0.430841124
        65          130.000000        26.051316478       195.872359449    -12691.595899258    -12664.658655072         0.939433181
        68          136.000000        29.395245912       221.014403559    -12695.036375125    -12664.770469411         0.402106490
        68          136.000000        29.395245912       221.014403559    -12695.036375125    -12664.770469411         0.476020808
        73          146.000000        29.367785262       220.807934829    -12694.984795779    -12664.770478681         0.555270875
       284          568.000000        25.239900529       189.771556190    -12691.718447377    -12664.653537936         0.697953692
        74          148.000000        25.175246972       189.285444684    -12690.667151498    -12664.659364309         0.320041274
        18           36.000000        18.376993446       138.171330759    -12683.393028617    -12664.587356987         0.830282445
       285          570.000000        28.464524283       214.016575192    -12695.082295336    -12664.736823029         0.295820957
        69          138.000000        33.543122700       252.201096707    -12699.346790092    -12664.897128709         0.720111729
        26           52.000000        30.137231215       226.593177749    -12695.203919697    -12664.823419874         0.823575052
        69          138.000000        33.543122700       252.201096707    -12699.346790092    -12664.897128709         0.786272251
        10           20.000000        24.667703187       185.469368870    -12689.478124790    -12664.649596439         0.954859156
        75          150.000000        22.715779309       170.793414367    -12688.170161127    -12664.595973069         0.402607888
       118          236.000000        37.273042747       280.245293276    -12703.488116552    -12664.990598369         1.165441483
       200          400.000000        29.698550037       223.294860082    -12696.119577939    -12664.783198299         1.149860045
       140          280.000000        26.183279964       196.864554963    -12692.049075214    -12664.666075206         1.193299983
       304          608.000000        28.854742224       216.950511710    -12695.521103063    -12664.757120268         1.331531289
         8           16.000000        25.919815261       194.883639600    -12690.572119943    -12664.634616175         1.365486938
        70          140.000000        36.273719734       272.731670827    -12702.173775601    -12664.974937369         0.410696970
        11           22.000000        28.084313004       211.157875889    -12693.178695774    -12664.764899631         0.463658785
       253          506.000000        27.435656493       206.280814056    -12693.835898827    -12664.682998473         1.748790584
       247          494.000000        28.374523219       213.339883067    -12694.858258897    -12664.725468251         1.431192459
       164          328.000000        35.657726563       268.100195258    -12702.126166187    -12664.970243961         1.786301635
        66          132.000000        24.441034458       183.765111855    -12689.895661381    -12664.611451851         1.455282168
        76          152.000000        22.932187546       172.420525684    -12688.462688488    -12664.601679776         0.440213768
       254          508.000000        25.540112648       192.028764809    -12691.861854948    -12664.622514793         0.221912108
       305          610.000000        32.417726894       243.739569167    -12699.214082835    -12664.848532882         0.510435022
       248          496.000000        32.218719676       242.243291109    -12698.857566839    -12664.829369036         0.298190566
       165          330.000000        36.479053048       274.275512988    -12702.958397717    -12664.976133585         0.347873202
        12           24.000000        32.189980902       242.027212528    -12697.598883017    -12664.893747593         0.509525850
        67          134.000000        25.782257303       193.849380858    -12691.279929900    -12664.656152658         0.360090857
       306          612.000000        34.669776055       260.672079400    -12701.546993787    -12664.910710289         0.204951555
       166          332.000000        34.423037229       258.816921096    -12700.796430991    -12664.901235504         0.349643514
       167          334.000000        30.483481434       229.196533604    -12696.691127308    -12664.785387746         0.241407020
        10           20.000000        24.667703187       185.469368870    -12689.478124790    -12664.649596439         0.712887837
       168          336.000000        26.316320447       197.864848110    -12692.370028299    -12664.675678412         0.225843639
        71          142.000000        36.327790525       273.138213556    -12702.213036214    -12664.970316642         1.489724542
       249          498.000000        35.148295870       264.269932328    -12701.905960420    -12664.915104631         1.072324112
       169          338.000000        23.535064101       176.953381186    -12689.504960955    -12664.608914287         0.254761050
        11           22.000000        28.084313004       211.157875889    -12693.178695774    -12664.764899631         0.383235294
       141          282.000000        23.937181348       179.976785169    -12689.730238768    -12664.593101505         1.836089715
        72          144.000000        33.658732176       253.070331128    -12699.430666452    -12664.889841768         0.294899469
       250          500.000000        35.953864266       270.326769510    -12702.742420339    -12664.944729201         0.315897116
        13           26.000000        34.995511128       263.121187770    -12700.644769266    -12664.981373093         1.298033785
       170          340.000000        23.139068547       173.976004457    -12689.124460418    -12664.603579645         0.417730483
        70          140.000000        36.273719734       272.731670827    -12702.173775601    -12664.974937369         2.583214245
       251          502.000000        34.288142848       257.802689024    -12701.000044116    -12664.899422109         0.358459280
        14           28.000000        35.097428422       263.887474607    -12700.838645620    -12664.991800143         0.372439618
       171          342.000000        25.216243584       189.593686423    -12691.311482653    -12664.658281160         0.232319806
        27           54.000000        25.993828950       195.440127253    -12690.995833659    -12664.686919883         2.696973264
        12           24.000000        32.189980902       242.027212528    -12697.598883017    -12664.893747593         0.624410969
       307          614.000000        34.748380664       261.263084854    -12701.621883408    -12664.916532304         1.724872436
        71          142.000000        36.327790525       273.138213556    -12702.213036214    -12664.970316642         0.278612116
        68          136.000000        29.395245912       221.014403559    -12695.036375125    -12664.770469411         1.865549792
       119          238.000000        35.458033284       266.598758900    -12701.597766429    -12664.945125260         2.814865872
       308          616.000000        32.653022650       245.508690318    -12699.435209973    -12664.859228451         0.378429834
        15           30.000000        32.228560906       242.317284488    -12697.897088803    -12664.922381305         0.530742715
        69          138.000000        33.543122700       252.201096707    -12699.346790092    -12664.897128709         0.339432169
        13           26.000000        34.995511128       263.121187770    -12700.644769266    -12664.981373093         0.560547263
       286          572.000000        32.031051927       240.832271251    -12698.799595034    -12664.831954193         3.430194987
       201          402.000000        33.298746025       250.363698741    -12699.898320939    -12664.891343468         3.087666135
        19           38.000000        17.485237519       131.466474303    -12682.375177352    -12664.564174321         3.614950034
       252          504.000000        30.914332804       232.435981194    -12697.472096998    -12664.795319500         0.949254148
       142          284.000000        24.788750669       186.379490090    -12690.659653341    -12664.626375185         1.448766661
        70          140.000000        36.273719734       272.731670827    -12702.173775601    -12664.974937369         0.421615587
       287          574.000000        34.562556195       259.865924095    -12701.437884238    -12664.904250466         0.294632640
        14           28.000000        35.097428422       263.887474607    -12700.838645620    -12664.991800143         0.374932565
       120          240.000000        31.369244611       235.856332298    -12697.337998507    -12664.823641234         0.594836130
       202          404.000000        35.400854922       266.168851232    -12702.089684848    -12664.944893804         0.337359236
        72          144.000000        33.658732176       253.070331128    -12699.430666452    -12664.889841768         0.894735804
        20           40.000000        19.746405047       148.467542915    -12684.619533159    -12664.614247644         0.575269198
       203          406.000000        35.104678090       263.941982779    -12701.765487126    -12664.926156158         0.387655861
       143          286.000000        28.249552348       212.400263009    -12694.313560468    -12664.744256785         0.541481946
        73          146.000000        29.367785262       220.807934829    -12694.984795779    -12664.770478681         0.574736671
        74          148.000000        25.175246972       189.285444684    -12690.667151498    -12664.659364310         0.718910112
       309          618.000000        29.321297716       220.458408334    -12695.961877895    -12664.760855496         1.266506355
       144          288.000000        32.556164680       244.780443081    -12698.833091409    -12664.880206785         0.316063718
       204          408.000000        32.583729428       244.987694499    -12699.122025388    -12664.850098095         0.397162016
       121          242.000000        26.889181254       202.172023832    -12692.673595796    -12664.681142904         0.873998479
        75          150.000000        22.715779309       170.793414367    -12688.170161127    -12664.595973069         0.273608027
        16           32.000000        27.319884111       205.410354798    -12692.792589265    -12664.802090147         1.455005606
        74          148.000000        25.175246972       189.285444684    -12690.667151498    -12664.659364310         0.381050353
       310          620.000000        26.277396203       197.572187910    -12692.792182085    -12664.667035867         0.287793710
       145          290.000000        35.625750367       267.859775431    -12702.037961460    -12664.966613587         0.243076186
        21           42.000000        24.400531687       183.460583168    -12689.351106406    -12664.723230348         0.672622514
       255          510.000000        26.129560607       196.460654558    -12692.494365118    -12664.646414221         4.010233701
        77          154.000000        25.742109929       193.547524293    -12691.449569598    -12664.675466989         4.085978079
       205          410.000000        28.895117903       217.254084838    -12695.271129299    -12664.750425901         0.383529668
       146          292.000000        36.059099803       271.118005258    -12702.478506927    -12664.969943805         0.516453704
        76          152.000000        22.932187546       172.420525684    -12688.462688488    -12664.601679776         0.686400932
        78          156.000000        30.055348920       225.977528313    -12695.991089010    -12664.793523915         0.647880268
       147          294.000000        33.676792505       253.206121546    -12699.985409139    -12664.897881826         0.241441069
       256          512.000000        28.850222645       216.916530296    -12695.356309267    -12664.738958595         0.752451033
        77          154.000000        25.742109929       193.547524293    -12691.449569598    -12664.675466989         0.316764971
        22           44.000000        29.824132321       224.239077170    -12694.899564965    -12664.856273445         0.921882789
       148          296.000000        29.450271913       221.428128243    -12695.583821499    -12664.785088036         0.249876615
       257          514.000000        32.311842320       242.943453495    -12698.984511410    -12664.848529964         0.300211588
       123          246.000000        24.539299169       184.503935967    -12690.279804962    -12664.603321476         0.468968306
        79          158.000000        34.146912227       256.740816589    -12700.287587882    -12664.913151921         0.484015830
       149          298.000000        25.007313276       188.022799499    -12690.970667860    -12664.673847910         0.227823384
        78          156.000000        30.055348920       225.977528313    -12695.991089010    -12664.793523915         0.461830774
        23           46.000000        34.072532217       256.181574672    -12699.256454282    -12664.964990158         0.555901277
       206          412.000000        25.488314681       191.639310788    -12691.723925212    -12664.663810976         1.346087986
        75          150.000000        22.715779309       170.793414367    -12688.170161127    -12664.595973069         1.582261883
       258          516.000000        34.830685402       261.881910524    -12701.616764176    -12664.920965383         0.446948543
        24           48.000000        35.612020942       267.756547833    -12700.832565997    -12665.003082951         0.404221566
       207          414.000000        23.647915377       177.801877495    -12689.813161327    -12664.618763421         0.404987216
       288          576.000000        35.057764138       263.589250259    -12701.951743695    -12664.922787840         3.074140217
        79          158.000000        34.146912227       256.740816589    -12700.287587882    -12664.913151921         0.697075802
       253          506.000000        27.435656493       206.280814056    -12693.835898827    -12664.682998473         3.239820066
        15           30.000000        32.228560906       242.317284488    -12697.897088803    -12664.922381305         3.244892831
        71          142.000000        36.327790525       273.138213556    -12702.213036214    -12664.970316642         3.281471469
        80          160.000000        36.311397698       273.014960601    -12702.556440373    -12664.984147565         1.013986297
       289          578.000000        33.340850940       250.680273495    -12700.153389024    -12664.875127855         0.248981965
       208          416.000000        24.050371158       180.827826812    -12690.237482296    -12664.629566289         0.371382455
        25           50.000000        33.993331923       255.586090433    -12699.161470764    -12664.948921796         0.403226431
        80          160.000000        36.311397698       273.014960601    -12702.556440373    -12664.984147565         0.453313439
       209          418.000000        26.540267070       199.548638387    -12692.832818098    -12664.693481481         0.387241356
        72          144.000000        33.658732176       253.070331128    -12699.430666452    -12664.889841768         0.703856522
        16           32.000000        27.319884111       205.410354798    -12692.792589265    -12664.802090147         0.735179921
       210          420.000000        30.175179957       226.878503431    -12696.619294594    -12664.790403411         0.254997704
        26           52.000000        30.137231215       226.593177749    -12695.203919697    -12664.823419874         0.696822629
        81          162.000000        35.607199026       267.720293230    -12701.808350480    -12664.969584484         0.525896074
        81          162.000000        35.607199026       267.720293230    -12701.808350480    -12664.969584484         0.898223209
        73          146.000000        29.367785262       220.807934829    -12694.984795779    -12664.770478681         0.306565072
       211          422.000000        33.540735699       252.183149532    -12700.125894306    -12664.886176048         0.354821251
        82          164.000000        32.373094513       243.403991130    -12698.394134046    -12664.869638424         0.322276438
        82          164.000000        32.373094513       243.403991130    -12698.394134046    -12664.869638424         0.272267901
        27           54.000000        25.993828950       195.440127253    -12690.995833659    -12664.686919883         0.392415058
        17           34.000000        22.089915861       166.087727017    -12687.319076195    -12664.676078938         0.480143203
       311          622.000000        24.946888222       187.568480887    -12691.415490524    -12664.625569736         3.447291074
       254          508.000000        25.540112648       192.028764809    -12691.861854948    -12664.622514793         1.356850635
       290          580.000000        30.217731282       227.198434609    -12696.881622439    -12664.779101463         1.229419422
       124          248.000000        27.832071058       209.261341207    -12693.759321690    -12664.710474829         2.336066293
        74          148.000000        25.175246972       189.285444684    -12690.667151498    -12664.659364310         0.343278970
       172          344.000000        28.957105907       217.720154820    -12695.220660386    -12664.753660840         5.618702376
        76          152.000000        22.932187546       172.420525684    -12688.462688488    -12664.601679776         2.074971103
        17           34.000000        22.089915861       166.087727017    -12687.319076195    -12664.676078938         3.688414653
       259          518.000000        35.233959792       264.914014728    -12702.035300558    -12664.927286452         2.151122603
        28           56.000000        23.643742473       177.770502627    -12688.704914895    -12664.609771204         5.763591404
       291          582.000000        27.181685965       204.371282665    -12693.699670169    -12664.680900518         0.275541701
       212          424.000000        35.273728721       265.213025873    -12701.931497809    -12664.941864312         0.481611896
       150          300.000000        21.993320326       165.361452958    -12687.851474182    -12664.599897726         2.620276790
        18           36.000000        18.376993446       138.171330759    -12683.393028617    -12664.587356987         0.501389724
        28           56.000000        23.643742473       177.770502627    -12688.704914895    -12664.609771204         0.506017598
       312          624.000000        25.955695671       195.153414085    -12692.483599026    -12664.659085538         0.557461895
        83          166.000000        28.184256974       211.909325865    -12693.967275071    -12664.731179909         0.673233414
        18           36.000000        18.376993446       138.171330759    -12683.393028617    -12664.587356987         0.494145945
        77          154.000000        25.742109929       193.547524293    -12691.449569598    -12664.675466989         0.505520711
       125          250.000000        32.446903708       243.958941244    -12698.608980998    -12664.854627845         0.602059943
        75          150.000000        22.715779309       170.793414367    -12688.170161127    -12664.595973069         0.593858047
        83          166.000000        28.184256974       211.909325865    -12693.967275071    -12664.731179909         0.843404510
       255          510.000000        26.129560607       196.460654558    -12692.494365118    -12664.646414221         0.801159948
       151          302.000000        21.514243471       161.759411813    -12687.367812474    -12664.585076708         0.496030248
        29           58.000000        24.270347543       182.481766011    -12689.548740518    -12664.632503625         0.717278627
       213          426.000000        34.639958746       260.447891627    -12701.266824640    -12664.929567213         0.703180295
       260          520.000000        33.318994203       250.515938970    -12700.039533997    -12664.870984773         0.801447725
        29           58.000000        24.270347543       182.481766011    -12689.548740519    -12664.632503625         0.815170760
        19           38.000000        17.485237519       131.466474303    -12682.375177352    -12664.564174321         0.865043502
        84          168.000000        25.140822401       189.026616230    -12690.739178980    -12664.627381708         0.558464088
       173          346.000000        32.952883656       247.763259018    -12699.386466087    -12664.856944689         1.257494729
       214          428.000000        31.925555964       240.039077433    -12698.427414055    -12664.849760864         0.364255474
       292          584.000000        25.719508227       193.377588596    -12692.168743021    -12664.633307043         1.153982803
        78          156.000000        30.055348920       225.977528313    -12695.991089010    -12664.793523915         0.880174152
        19           38.000000        17.485237519       131.466474303    -12682.375177352    -12664.564174321         0.893208585
       152          304.000000        23.790435682       178.873446696    -12689.744029364    -12664.634332969         0.679163410
       261          522.000000        29.835981939       224.328171049    -12696.418571315    -12664.778612275         0.534926225
        76          152.000000        22.932187546       172.420525684    -12688.462688488    -12664.601679776         0.973937792
        20           40.000000        19.746405047       148.467542915    -12684.619533159    -12664.614247644         0.505533987
        85          170.000000        24.799481101       186.460169125    -12690.350384837    -12664.614605476         0.544776592
        30           60.000000        27.567566747       207.272609333    -12693.174847190    -12664.742282291         0.926446402
       174          348.000000        35.700468150       268.421556960    -12702.244705720    -12664.930045208         0.559948478
        79          158.000000        34.146912227       256.740816589    -12700.287587882    -12664.913151921         0.568782274
        30           60.000000        27.567566747       207.272609333    -12693.174847190    -12664.742282291         0.936714487
        86          172.000000        27.355673070       205.679441689    -12693.005796519    -12664.697795226         0.402382805
       175          350.000000        36.178794750       272.017957159    -12702.730358171    -12664.942012390         0.365995997
        31           62.000000        31.917754237       239.980418493    -12697.857442407    -12664.881298561         0.443226786
        80          160.000000        36.311397698       273.014960601    -12702.556440373    -12664.984147565         0.276002418