#     Step Nr.          Time[fs]        Kin.[a.u.]          Temp[K]            Pot.[a.u.]        Cons Qty[a.u.]        UsedTime[s]
         0            0.000000        39.900448259       300.000000000    -12704.580765669    -12664.671840913         0.000000000
         1            2.000000        40.649619429       305.632802664    -12705.386302297    -12664.705029671         0.942413987
       402          804.000000        32.803846951       246.642694877    -12699.690081938    -12664.844391726         0.294272068
       218          436.000000        27.140937140       204.064903966    -12693.482491593    -12664.706891419         0.402713264
         1            2.000000        40.649619429       305.632802664    -12705.386302297    -12664.705029672         1.141500532
         1            2.000000        40.649619429       305.632802664    -12705.386302297    -12664.705029671         1.202208861
         1            2.000000        40.649619429       305.632802664    -12705.386302297    -12664.705029671         1.398119240
         1            2.000000        40.649619429       305.632802664    -12705.386302297    -12664.705029671         1.393973735
         1            2.000000        40.649619429       305.632802664    -12705.386302297    -12664.705029671         1.424023236
         2            4.000000        42.456814641       319.220583932    -12707.328189551    -12664.791539011         0.484337643
         2            4.000000        42.456814641       319.220583932    -12707.328189551    -12664.791539011         0.349406878
         1            2.000000        40.649619429       305.632802664    -12705.386302297    -12664.705029671         1.762854005
         2            4.000000        42.456814641       319.220583932    -12707.328189551    -12664.791539011         0.671760376
         3            6.000000        44.077372619       331.405093501    -12709.102642919    -12664.894089117         0.473421159
         2            4.000000        42.456814641       319.220583932    -12707.328189551    -12664.791539011         0.533457555
         1            2.000000        40.649619429       305.632802664    -12705.386302297    -12664.705029671         2.025369618
       219          438.000000        30.370204888       228.344839824    -12696.887571614    -12664.815711629         0.870315419
         3            6.000000        44.077372619       331.405093501    -12709.102642919    -12664.894089117         0.275916970
         1            2.000000        40.649619429       305.632802664    -12705.386302297    -12664.705029671         2.055115813
         2            4.000000        42.456814641       319.220583932    -12707.328189551    -12664.791539011         0.684743307
         2            4.000000        42.456814641       319.220583932    -12707.328189551    -12664.791539011         0.360246867
         3            6.000000        44.077372619       331.405093501    -12709.102642919    -12664.894089117         0.558525161
         1            2.000000        40.649619429       305.632802664    -12705.386302297    -12664.705029671         2.541687133
         1            2.000000        40.649619429       305.632802664    -12705.386302297    -12664.705029671         2.572728758
         2            4.000000        42.456814641       319.220583932    -12707.328189550    -12664.791539011         0.611374851
         4            8.000000        44.067864357       331.333603612    -12709.190741669    -12664.962682375         0.252998308
         3            6.000000        44.077372619       331.405093501    -12709.102642919    -12664.894089117         0.653627026
         2            4.000000        42.456814641       319.220583932    -12707.328189551    -12664.791539011         0.415355220
         5           10.000000        41.521666949       312.189477268    -12706.628753329    -12664.956856519         0.262250486
         2            4.000000        42.456814641       319.220583932    -12707.328189551    -12664.791539011         0.478521409
         4            8.000000        44.067864357       331.333603612    -12709.190741669    -12664.962682375         0.283153415
       403          806.000000        29.974507530       225.369705138    -12696.729351582    -12664.758261389         2.074202634
         3            6.000000        44.077372619       331.405093501    -12709.102642919    -12664.894089117         0.490994578
         3            6.000000        44.077372619       331.405093501    -12709.102642919    -12664.894089117         1.204568562
         2            4.000000        42.456814641       319.220583932    -12707.328189551    -12664.791539011         2.022023951
         4            8.000000        44.067864357       331.333603612    -12709.190741669    -12664.962682375         1.211944500
       230          460.000000        33.758885859       253.823357872    -12700.479816978    -12664.905111285         2.571211450
       406          812.000000        26.629977259       200.223143506    -12693.280494191    -12664.657256261         2.524820132
         4            8.000000        44.067864357       331.333603612    -12709.190741669    -12664.962682375         1.410687608
         3            6.000000        44.077372619       331.405093501    -12709.102642919    -12664.894089117         0.373174618
         3            6.000000        44.077372619       331.405093501    -12709.102642919    -12664.894089117         1.285664104
       220          440.000000        33.307460090       250.429217296    -12699.976080867    -12664.909042620         1.415976013
         3            6.000000        44.077372619       331.405093501    -12709.102642919    -12664.894089117         0.274230283
         6           12.000000        36.639465828       275.481610561    -12701.614504324    -12664.870909297         0.512750333
       404          808.000000        27.243790143       204.838226122    -12693.878679117    -12664.671530774         0.414134574
         2            4.000000        42.456814641       319.220583932    -12707.328189551    -12664.791539011         1.533274387
         4            8.000000        44.067864357       331.333603612    -12709.190741669    -12664.962682375         0.450998990
         3            6.000000        44.077372619       331.405093501    -12709.102642919    -12664.894089117         0.652327043
         4            8.000000        44.067864357       331.333603612    -12709.190741669    -12664.962682375         0.610092033
         3            6.000000        44.077372619       331.405093501    -12709.102642919    -12664.894089117         0.465777268
         5           10.000000        41.521666949       312.189477268    -12706.628753329    -12664.956856519         0.367695962
         4            8.000000        44.067864357       331.333603612    -12709.190741669    -12664.962682375         0.859088153
         5           10.000000        41.521666949       312.189477268    -12706.628753329    -12664.956856519         0.665496333
         4            8.000000        44.067864357       331.333603612    -12709.190741669    -12664.962682375         0.342073030
         5           10.000000        41.521666949       312.189477268    -12706.628753329    -12664.956856519         1.256783426
         4            8.000000        44.067864357       331.333603612    -12709.190741669    -12664.962682375         1.064858218
         7           14.000000        30.785090487       231.464245374    -12695.574868015    -12664.742765609         1.049265111
         5           10.000000        41.521666949       312.189477268    -12706.628753329    -12664.956856519         1.243582214
         6           12.000000        36.639465828       275.481610561    -12701.614504324    -12664.870909297         0.536336518
         5           10.000000        41.521666949       312.189477268    -12706.628753329    -12664.956856519         0.370017983
         5           10.000000        41.521666949       312.189477268    -12706.628753329    -12664.956856519         0.674429673
         8           16.000000        25.919815261       194.883639600    -12690.572119943    -12664.634616176         0.391474528
         5           10.000000        41.521666949       312.189477268    -12706.628753329    -12664.956856519         0.894085364
         7           14.000000        30.785090487       231.464245374    -12695.574868015    -12664.742765609         0.459373763
         6           12.000000        36.639465828       275.481610561    -12701.614504324    -12664.870909297         0.282775907
         7           14.000000        30.785090487       231.464245374    -12695.574868015    -12664.742765609         0.554605780
         9           18.000000        23.691594669       178.130289528    -12688.341012321    -12664.598227917         0.328456047
         6           12.000000        36.639465828       275.481610561    -12701.614504324    -12664.870909297         0.333178229
         8           16.000000        25.919815261       194.883639600    -12690.572119943    -12664.634616175         0.368188136
         8           16.000000        25.919815261       194.883639600    -12690.572119943    -12664.634616175         0.323779418
       231          462.000000        35.004353664       263.187672260    -12701.784265841    -12664.943773176         2.306089759
         7           14.000000        30.785090487       231.464245374    -12695.574868015    -12664.742765609         0.350723740
         6           12.000000        36.639465828       275.481610561    -12701.614504324    -12664.870909297         1.372722563
         9           18.000000        23.691594669       178.130289528    -12688.341012321    -12664.598227917         0.412240224
         6           12.000000        36.639465828       275.481610561    -12701.614504324    -12664.870909297         2.547324880
       407          814.000000        28.961703625       217.754723737    -12695.750223110    -12664.737290657         2.660804395
         5           10.000000        41.521666949       312.189477268    -12706.628753329    -12664.956856519         1.489956716
         6           12.000000        36.639465828       275.481610561    -12701.614504324    -12664.870909297         1.435118049
         8           16.000000        25.919815261       194.883639600    -12690.572119943    -12664.634616175         0.337484417
         4            8.000000        44.067864357       331.333603612    -12709.190741669    -12664.962682375         2.817788823
       405          810.000000        25.922878096       194.906668177    -12692.513557017    -12664.630241767         2.703971816
         7           14.000000        30.785090487       231.464245374    -12695.574868015    -12664.742765609         0.372018778
         7           14.000000        30.785090487       231.464245374    -12695.574868015    -12664.742765609         0.315826770
       221          442.000000        34.492781145       259.341305554    -12701.221242829    -12664.942747558         3.099158899
         5           10.000000        41.521666949       312.189477268    -12706.628753329    -12664.956856519         0.397566485
         8           16.000000        25.919815261       194.883639600    -12690.572119943    -12664.634616175         0.232830730
       222          444.000000        33.321193470       250.532474632    -12699.999038273    -12664.905855647         0.253453339
       223          446.000000        30.236849537       227.342179272    -12696.782804150    -12664.818749312         0.219600958
         9           18.000000        23.691594669       178.130289528    -12688.341012321    -12664.598227917         0.458081527
         6           12.000000        36.639465828       275.481610561    -12701.614504324    -12664.870909297         0.607736457
       224          448.000000        26.458392045       198.933043610    -12692.848424847    -12664.718054012         0.232350993
        10           20.000000        24.667703187       185.469368870    -12689.478124791    -12664.649596439         0.287718168
         6           12.000000        36.639465828       275.481610561    -12701.614504324    -12664.870909297         1.334961554
       225          450.000000        23.442421461       176.256827808    -12689.712570231    -12664.640298091         0.288916232
         7           14.000000        30.785090487       231.464245374    -12695.574868015    -12664.742765609         0.361827526
         9           18.000000        23.691594669       178.130289528    -12688.341012320    -12664.598227917         1.517404656
       408          816.000000        31.712621398       238.438083644    -12698.651975672    -12664.826838125         1.615578119
         7           14.000000        30.785090487       231.464245374    -12695.574868015    -12664.742765609         0.288559447
        11           22.000000        28.084313004       211.157875889    -12693.178695774    -12664.764899631         0.414535093
         7           14.000000        30.785090487       231.464245374    -12695.574868015    -12664.742765609         1.729505551
        12           24.000000        32.189980902       242.027212528    -12697.598883016    -12664.893747592         0.339999884
         8           16.000000        25.919815261       194.883639600    -12690.572119943    -12664.634616175         0.516891303
       232          464.000000        33.831132262       254.366557807    -12700.560148085    -12664.911689437         2.737924205
                                                                                                                                            9           18.000000        23.691594669       178.130289528    -12688.341012321    -12664.598227917         2.786357838
         8           16.000000        25.919815261       194.883639600    -12690.572119943    -12664.634616176         0.737112917
       226          452.000000        22.329238838       167.887127681    -12688.558685659    -12664.610928301         0.910013486
       406          812.000000        26.629977259       200.223143506    -12693.280494191    -12664.657256261         2.390502364
         8           16.000000        25.919815261       194.883639600    -12690.572119943    -12664.634616175         1.102026267
         8           16.000000        25.919815261       194.883639600    -12690.572119943    -12664.634616175         2.447601287
       227          454.000000        23.548274258       177.052704562    -12689.831276491    -12664.639078796         0.299823954
         9           18.000000        23.691594669       178.130289528    -12688.341012320    -12664.598227917         0.554849029
         7           14.000000        30.785090487       231.464245374    -12695.574868015    -12664.742765609         3.825081652
        10           20.000000        24.667703187       185.469368870    -12689.478124791    -12664.649596439         3.792870535
         9           18.000000        23.691594669       178.130289528    -12688.341012321    -12664.598227917         0.423485528
         9           18.000000        23.691594669       178.130289528    -12688.341012320    -12664.598227917         0.500556451
        10           20.000000        24.667703187       185.469368870    -12689.478124790    -12664.649596439         0.364806716
         9           18.000000        23.691594669       178.130289528    -12688.341012321    -12664.598227917         0.827310483
        10           20.000000        24.667703187       185.469368870    -12689.478124791    -12664.649596439         0.938549982
         8           16.000000        25.919815261       194.883639600    -12690.572119943    -12664.634616175         0.317032272
       233          466.000000        30.821555034       231.738411814    -12697.408440096    -12664.818538764         1.161452824
       409          818.000000        33.505810290       251.920555428    -12700.540994184    -12664.880935592         1.897438337
         7           14.000000        30.785090487       231.464245374    -12695.574868015    -12664.742765609         3.603480847
       407          814.000000        28.961703625       217.754723737    -12695.750223110    -12664.737290657         0.913237390
        14           28.000000        35.097428422       263.887474607    -12700.838645619    -12664.991800143         1.236717282
        11           22.000000        28.084313004       211.157875889    -12693.178695774    -12664.764899631         0.368739198
        11           22.000000        28.084313004       211.157875889    -12693.178695774    -12664.764899631         0.307503143
        10           20.000000        24.667703187       185.469368870    -12689.478124791    -12664.649596439         0.383329489
        10           20.000000        24.667703187       185.469368870    -12689.478124791    -12664.649596439         0.505786643
        10           20.000000        24.667703187       185.469368870    -12689.478124790    -12664.649596439         2.097243723
        10           20.000000        24.667703187       185.469368870    -12689.478124791    -12664.649596439         3.776716167
        11           22.000000        28.084313004       211.157875889    -12693.178695774    -12664.764899631         0.705210506
        10           20.000000        24.667703187       185.469368870    -12689.478124790    -12664.649596439         0.876535309
        12           24.000000        32.189980902       242.027212528    -12697.598883016    -12664.893747592         0.720623566
        13           26.000000        34.995511128       263.121187770    -12700.644769266    -12664.981373093         0.227201883
        14           28.000000        35.097428422       263.887474607    -12700.838645619    -12664.991800143         0.222757276
        12           24.000000        32.189980902       242.027212528    -12697.598883016    -12664.893747593         1.361628142
        15           30.000000        32.228560906       242.317284488    -12697.897088803    -12664.922381306         0.245506886
        13           26.000000        34.995511128       263.121187770    -12700.644769266    -12664.981373093         0.320838898
         9           18.000000        23.691594669       178.130289528    -12688.341012321    -12664.598227917         2.026760308
        11           22.000000        28.084313004       211.157875889    -12693.178695774    -12664.764899631         1.747179072
        16           32.000000        27.319884111       205.410354798    -12692.792589265    -12664.802090147         0.228920901
        12           24.000000        32.189980902       242.027212528    -12697.598883017    -12664.893747593         1.888503660
        14           28.000000        35.097428422       263.887474607    -12700.838645619    -12664.991800143         0.249713745
        10           20.000000        24.667703187       185.469368870    -12689.478124791    -12664.649596439         0.293859032
        11           22.000000        28.084313004       211.157875889    -12693.178695774    -12664.764899631         1.722543778
        15           30.000000        32.228560906       242.317284488    -12697.897088803    -12664.922381306         0.259731303
        17           34.000000        22.089915861       166.087727017    -12687.319076195    -12664.676078938         0.397950775
        11           22.000000        28.084313004       211.157875889    -12693.178695774    -12664.764899631         2.129048393
        12           24.000000        32.189980902       242.027212528    -12697.598883016    -12664.893747593         0.440317332
        15           30.000000        32.228560906       242.317284488    -12697.897088803    -12664.922381306         2.323885310
        11           22.000000        28.084313004       211.157875889    -12693.178695774    -12664.764899631         2.314053252
        13           26.000000        34.995511128       263.121187770    -12700.644769266    -12664.981373093         0.485814005
        11           22.000000        28.084313004       211.157875889    -12693.178695774    -12664.764899631         0.307003144
        18           36.000000        18.376993446       138.171330759    -12683.393028617    -12664.587356986         0.558348299
        14           28.000000        35.097428422       263.887474607    -12700.838645620    -12664.991800143         0.653618435
        12           24.000000        32.189980902       242.027212528    -12697.598883016    -12664.893747592         0.688127354
        19           38.000000        17.485237519       131.466474303    -12682.375177352    -12664.564174321         0.234153569
        20           40.000000        19.746405047       148.467542915    -12684.619533159    -12664.614247643         0.333777064
        12           24.000000        32.189980902       242.027212528    -12697.598883017    -12664.893747593         1.142577279
        12           24.000000        32.189980902       242.027212528    -12697.598883016    -12664.893747593         1.011792695
        13           26.000000        34.995511128       263.121187770    -12700.644769266    -12664.981373093         1.173488190
        16           32.000000        27.319884111       205.410354798    -12692.792589265    -12664.802090147         1.238357794
        17           34.000000        22.089915861       166.087727017    -12687.319076195    -12664.676078938         0.430578365
        14           28.000000        35.097428422       263.887474607    -12700.838645619    -12664.991800143         0.532868006
        21           42.000000        24.400531687       183.460583168    -12689.351106406    -12664.723230348         0.681957798
        18           36.000000        18.376993446       138.171330759    -12683.393028616    -12664.587356986         0.235321758
        15           30.000000        32.228560906       242.317284488    -12697.897088803    -12664.922381306         0.249607962
        22           44.000000        29.824132321       224.239077170    -12694.899564965    -12664.856273445         0.253510953
       229          458.000000        30.568424198       229.835193832    -12697.148856510    -12664.816926709         4.327133583
         8           16.000000        25.919815261       194.883639600    -12690.572119943    -12664.634616175         4.427631443
       408          816.000000        31.712621398       238.438083644    -12698.651975672    -12664.826838125         4.430933520
        19           38.000000        17.485237519       131.466474303    -12682.375177351    -12664.564174320         0.294581397
        11           22.000000        28.084313004       211.157875889    -12693.178695774    -12664.764899631         4.334275944
        16           32.000000        27.319884111       205.410354798    -12692.792589265    -12664.802090147         2.156466191
        16           32.000000        27.319884111       205.410354798    -12692.792589265    -12664.802090147         0.302905825
        12           24.000000        32.189980902       242.027212528    -12697.598883017    -12664.893747593         2.376750836
       410          820.000000        33.459488111       251.572272277    -12700.498633900    -12664.876696884         4.623810381
       234          468.000000        27.437308635       206.293236033    -12693.855915495    -12664.707343854         4.656189066
        13           26.000000        34.995511128       263.121187770    -12700.644769266    -12664.981373093         1.550351596
       230          460.000000        33.758885859       253.823357872    -12700.479816978    -12664.905111285         0.257507553
        13           26.000000        34.995511128       263.121187770    -12700.644769266    -12664.981373093         1.191046970
        23           46.000000        34.072532217       256.181574672    -12699.256454282    -12664.964990158         0.344016949
        15           30.000000        32.228560906       242.317284488    -12697.897088803    -12664.922381305         1.689213586
        17           34.000000        22.089915861       166.087727017    -12687.319076195    -12664.676078938         0.249849412
        13           26.000000        34.995511128       263.121187770    -12700.644769266    -12664.981373093         1.321600891
       409          818.000000        33.505810290       251.920555428    -12700.540994184    -12664.880935592         0.318857574
         9           18.000000        23.691594669       178.130289528    -12688.341012321    -12664.598227917         0.389223780
        20           40.000000        19.746405047       148.467542915    -12684.619533159    -12664.614247644         0.386425833
        14           28.000000        35.097428422       263.887474607    -12700.838645619    -12664.991800143         0.246764587
        12           24.000000        32.189980902       242.027212528    -12697.598883017    -12664.893747593         0.450158543
        24           48.000000        35.612020942       267.756547833    -12700.832565997    -12665.003082951         0.275130584
        17           34.000000        22.089915861       166.087727017    -12687.319076195    -12664.676078938         0.418269247
       235          470.000000        25.367145602       190.728275318    -12691.674120240    -12664.635465939         0.393964452
       411          822.000000        31.547112169       237.193667337    -12698.504170959    -12664.820094913         0.417371843
        13           26.000000        34.995511128       263.121187770    -12700.644769266    -12664.981373093         0.567027263
       231          462.000000        35.004353664       263.187672260    -12701.784265841    -12664.943773176         0.603109628
        25           50.000000        33.993331923       255.586090433    -12699.161470764    -12664.948921796         0.445424338
        10           20.000000        24.667703187       185.469368870    -12689.478124791    -12664.649596439         0.623682430
        16           32.000000        27.319884111       205.410354798    -12692.792589265    -12664.802090147         0.723121521
       232          464.000000        33.831132262       254.366557807    -12700.560148084    -12664.911689437         0.243458285
        14           28.000000        35.097428422       263.887474607    -12700.838645620    -12664.991800143         0.448716617
        18           36.000000        18.376993446       138.171330759    -12683.393028616    -12664.587356986         0.649267373
        26           52.000000        30.137231215       226.593177749    -12695.203919697    -12664.823419873         0.275465948
        15           30.000000        32.228560906       242.317284488    -12697.897088803    -12664.922381306         0.842269576
       233          466.000000        30.821555034       231.738411814    -12697.408440096    -12664.818538764         0.281651161
        21           42.000000        24.400531687       183.460583168    -12689.351106406    -12664.723230348         0.977940051
        13           26.000000        34.995511128       263.121187770    -12700.644769266    -12664.981373093         0.998658345
        22           44.000000        29.824132321       224.239077170    -12694.899564965    -12664.856273445         0.463030714
        16           32.000000        27.319884111       205.410354798    -12692.792589265    -12664.802090147         0.666462492
        14           28.000000        35.097428422       263.887474607    -12700.838645619    -12664.991800143         1.762261434
        19           38.000000        17.485237519       131.466474303    -12682.375177351    -12664.564174320         0.786724367
        27           54.000000        25.993828950       195.440127253    -12690.995833660    -12664.686919884         0.797021142
        23           46.000000        34.072532217       256.181574672    -12699.256454282    -12664.964990157         0.241984869
       234          468.000000        27.437308635       206.293236033    -12693.855915495    -12664.707343854         0.776595214
        17           34.000000        22.089915861       166.087727017    -12687.319076195    -12664.676078938         0.248362178
        14           28.000000        35.097428422       263.887474607    -12700.838645620    -12664.991800143         1.911940150
        28           56.000000        23.643742473       177.770502627    -12688.704914895    -12664.609771204         0.255277693
        15           30.000000        32.228560906       242.317284488    -12697.897088803    -12664.922381306         0.450430437
        18           36.000000        18.376993446       138.171330759    -12683.393028616    -12664.587356986         0.253514893
        20           40.000000        19.746405047       148.467542915    -12684.619533159    -12664.614247644         0.475641001
       410          820.000000        33.459488111       251.572272277    -12700.498633900    -12664.876696884         2.134639345
        24           48.000000        35.612020942       267.756547833    -12700.832565997    -12665.003082951         0.391814416
       412          824.000000        28.535188560       214.547879575    -12695.362512881    -12664.737366110         1.905418689
        18           36.000000        18.376993446       138.171330759    -12683.393028617    -12664.587356986         2.164465827
       236          472.000000        25.687108355       193.133983272    -12691.994464623    -12664.641599842         1.940829276
        29           58.000000        24.270347543       182.481766011    -12689.548740519    -12664.632503625         0.234390489
        11           22.000000        28.084313004       211.157875889    -12693.178695774    -12664.764899631         1.530947678