#     Step Nr.          Time[fs]        Kin.[a.u.]          Temp[K]            Pot.[a.u.]        Cons Qty[a.u.]        UsedTime[s]
         0            0.000000        39.900448259       300.000000000    -12704.580765675    -12664.671840919         0.000000000
         8           16.000000        25.919815261       194.883639600    -12690.572119943    -12664.634616175         8.704951518
        46           92.000000        27.096409496       203.730113412    -12692.486935707    -12664.683726383         2.280914236
        37           74.000000        21.372637494       160.694717176    -12686.750062937    -12664.610882186         5.310776602
       555         1110.000000        27.281200718       205.119505483    -12693.870547077    -12664.654184365         0.278983611
       218          436.000000        27.140937140       204.064903966    -12693.482491593    -12664.706891419         5.312238879
       173          346.000000        32.952883656       247.763259018    -12699.386466087    -12664.856944689         1.257878192
       218          436.000000        27.140937140       204.064903966    -12693.482491593    -12664.706891419         0.610979496
        36           72.000000        24.704703796       185.747565814    -12690.273194828    -12664.689268651         0.341936314
       177          354.000000        31.017575985       233.212236994    -12697.298209869    -12664.778091842         2.225811289
       118          236.000000        37.273042747       280.245293276    -12703.488116552    -12664.990598369         2.375747489
         1            2.000000        40.649619429       305.632802664    -12705.386302297    -12664.705029672         0.489840716
        25           50.000000        33.993331923       255.586090433    -12699.161470764    -12664.948921796         2.462758512
       219          438.000000        30.370204888       228.344839824    -12696.887571614    -12664.815711629         0.564610385
       136          272.000000        35.754466290       268.827553454    -12702.028759425    -12664.956969319         0.817721539
        26           52.000000        30.137231215       226.593177749    -12695.203919697    -12664.823419874         0.307127748
       219          438.000000        30.370204888       228.344839824    -12696.887571614    -12664.815711629         0.764782452
       174          348.000000        35.700468150       268.421556960    -12702.244705720    -12664.930045208         0.802638330
       119          238.000000        35.458033284       266.598758900    -12701.597766428    -12664.945125260         0.686499800
       220          440.000000        33.307460090       250.429217296    -12699.976080867    -12664.909042620         0.255295077
       178          356.000000        27.960696348       210.228437786    -12694.083465390    -12664.675189543         0.774548219
        38           76.000000        20.540860392       154.440824266    -12685.839619178    -12664.596755104         0.895173009
        27           54.000000        25.993828950       195.440127253    -12690.995833659    -12664.686919883         0.269033418
       137          274.000000        36.705791978       275.980297814    -12703.015070095    -12664.992354054         0.311315240
        37           74.000000        21.372637494       160.694717176    -12686.750062937    -12664.610882186         0.868183446
       556         1112.000000        26.954109937       202.660203930    -12693.526689045    -12664.643435839         0.948780454
        26           52.000000        30.137231215       226.593177749    -12695.203919697    -12664.823419874         3.176213839
       220          440.000000        33.307460090       250.429217296    -12699.976080867    -12664.909042620         0.315163332
       138          276.000000        34.612517485       260.241568670    -12700.831666931    -12664.935076901         0.231429136
        39           78.000000        22.416082931       168.540083452    -12687.754552524    -12664.648542465         0.378986176
       201          402.000000        33.298746025       250.363698741    -12699.898320939    -12664.891343468         3.132068480
        27           54.000000        25.993828950       195.440127253    -12690.995833659    -12664.686919883         0.332993305
       557         1114.000000        28.146293266       211.623887660    -12694.771800967    -12664.681878314         0.389952349
       175          350.000000        36.178794750       272.017957159    -12702.730358171    -12664.942012390         0.547171763
         2            4.000000        42.456814641       319.220583932    -12707.328189551    -12664.791539011         1.246690704
        47           94.000000        26.132830448       196.485239557    -12691.491903607    -12664.632703981         1.438804093
        40           80.000000        26.228983905       197.208189758    -12691.693412415    -12664.747581562         0.279719667
       221          442.000000        34.492781145       259.341305554    -12701.221242829    -12664.942747558         0.508400608
        25           50.000000        33.993331923       255.586090433    -12699.161470764    -12664.948921796         3.452247161
       221          442.000000        34.492781145       259.341305554    -12701.221242829    -12664.942747558         0.768864180
         7           14.000000        30.785090487       231.464245374    -12695.574868015    -12664.742765609         3.889720018
       176          352.000000        34.299963893       257.891568068    -12700.749605679    -12664.883758161         0.441461295
         8           16.000000        25.919815261       194.883639600    -12690.572119943    -12664.634616175         0.222026249
         8           16.000000        25.919815261       194.883639600    -12690.572119943    -12664.634616175         4.368768623
       222          444.000000        33.321193470       250.532474632    -12699.999038273    -12664.905855647         0.430412942
       177          354.000000        31.017575985       233.212236994    -12697.298209869    -12664.778091842         0.232595504
         7           14.000000        30.785090487       231.464245374    -12695.574868015    -12664.742765609         4.234046198
       558         1116.000000        30.280762633       227.672349221    -12696.999978865    -12664.748784078         0.720962686
        10           20.000000        24.667703187       185.469368870    -12689.478124791    -12664.649596439         4.310071558
         9           18.000000        23.691594669       178.130289528    -12688.341012321    -12664.598227917         0.217268764
       222          444.000000        33.321193470       250.532474632    -12699.999038273    -12664.905855647         0.560816896
        28           56.000000        23.643742473       177.770502627    -12688.704914895    -12664.609771204         1.020702653
        41           82.000000        30.521598592       229.483125559    -12696.138993809    -12664.859275273         0.798995442
       140          280.000000        26.183279964       196.864554963    -12692.049075214    -12664.666075206         0.994883782
       178          356.000000        27.960696348       210.228437786    -12694.083465390    -12664.675189543         0.336520209
       223          446.000000        30.236849537       227.342179272    -12696.782804150    -12664.818749312         0.299287232
       223          446.000000        30.236849537       227.342179272    -12696.782804150    -12664.818749312         0.489821396
       224          448.000000        26.458392045       198.933043610    -12692.848424847    -12664.718054012         0.301968042
        42           84.000000        33.678379308       253.218052259    -12699.407946735    -12664.941743419         0.486098839
       224          448.000000        26.458392045       198.933043610    -12692.848424847    -12664.718054012         0.405314164
       202          404.000000        35.400854922       266.168851232    -12702.089684848    -12664.944893804         1.675492795
       141          282.000000        23.937181348       179.976785169    -12689.730238768    -12664.593101505         0.663193129
       225          450.000000        23.442421461       176.256827808    -12689.712570231    -12664.640298091         0.268127381
        43           86.000000        34.555935662       259.816146213    -12700.305288193    -12664.959996105         0.334435068
        48           96.000000        27.813540339       209.122014060    -12693.274521064    -12664.671362769         1.754134738
       225          450.000000        23.442421461       176.256827808    -12689.712570231    -12664.640298091         0.369438945
       203          406.000000        35.104678090       263.941982779    -12701.765487126    -12664.926156158         0.302792255
         3            6.000000        44.077372619       331.405093501    -12709.102642919    -12664.894089117         1.965671933
       226          452.000000        22.329238838       167.887127681    -12688.558685659    -12664.610928301         0.355951435
        26           52.000000        30.137231215       226.593177749    -12695.203919697    -12664.823419874         1.867627262
       204          408.000000        32.583729428       244.987694499    -12699.122025388    -12664.850098095         0.270320525
        44           88.000000        32.990212766       248.043925861    -12698.655929811    -12664.902731154         0.406339169
         4            8.000000        44.067864357       331.333603612    -12709.190741669    -12664.962682375         0.224810795
       216          432.000000        25.751061306       193.614827124    -12691.979028737    -12664.652928250         7.201614950
       268          536.000000        35.143425375       264.233312475    -12701.944613790    -12664.914662317         7.214339562
       205          410.000000        28.895117903       217.254084838    -12695.271129299    -12664.750425901         0.281358582
       227          454.000000        23.548274258       177.052704562    -12689.831276491    -12664.639078796         0.429897453
       227          454.000000        23.548274258       177.052704562    -12689.831276491    -12664.639078796         0.273395654
        45           90.000000        29.936089528       225.080851232    -12695.455656420    -12664.793125053         0.399594124
       217          434.000000        25.268547283       189.986942900    -12691.494792777    -12664.640143543         0.243483375
       142          284.000000        24.788750669       186.379490090    -12690.659653342    -12664.626375185         1.023011238
        27           54.000000        25.993828950       195.440127253    -12690.995833659    -12664.686919883         0.612235171
       559         1118.000000        32.338826663       243.146341016    -12699.144954866    -12664.810284691         2.031722279
        49           98.000000        31.563839869       237.319438102    -12697.225671995    -12664.782964047         0.987319551
        10           20.000000        24.667703187       185.469368870    -12689.478124791    -12664.649596439         2.024881726
       206          412.000000        25.488314681       191.639310788    -12691.723925212    -12664.663810976         0.419000370
         5           10.000000        41.521666949       312.189477268    -12706.628753329    -12664.956856519         0.623395311
       269          538.000000        35.879399468       269.766890103    -12702.702724353    -12664.941306975         0.475614253
       143          286.000000        28.249552348       212.400263009    -12694.313560468    -12664.744256785         0.506121341
        38           76.000000        20.540860392       154.440824266    -12685.839619178    -12664.596755104         3.661547934
        28           56.000000        23.643742473       177.770502627    -12688.704914895    -12664.609771204         3.695648702
       270          540.000000        34.150111274       256.764869305    -12700.890910873    -12664.894506346         0.410307751
        46           92.000000        27.096409496       203.730113412    -12692.486935707    -12664.683726383         0.914972306
       560         1120.000000        33.356551501       250.798321500    -12700.202176209    -12664.838266437         0.825611807
       228          456.000000        26.675246331       200.563508643    -12693.089812599    -12664.716110650         1.071684498
        29           58.000000        24.270347543       182.481766011    -12689.548740519    -12664.632503625         2.679285126
       179          358.000000        26.681419192       200.609920612    -12692.735927808    -12664.629235845         2.642759901
       218          436.000000        27.140937140       204.064903966    -12693.482491593    -12664.706891419         1.025080594
       228          456.000000        26.675246331       200.563508643    -12693.089812599    -12664.716110650         1.185664141
        50          100.000000        35.712341812       268.510831614    -12701.584368018    -12664.910079556         0.933742143
       271          542.000000        30.753848245       231.229343933    -12697.339121635    -12664.789618128         0.449307824
       180          360.000000        27.864925104       209.508361336    -12693.976251030    -12664.666710801         0.404684928
        28           56.000000        23.643742473       177.770502627    -12688.704914895    -12664.609771204         1.406153833
        47           94.000000        26.132830448       196.485239557    -12691.491903607    -12664.632703981         0.605692317
       144          288.000000        32.556164680       244.780443081    -12698.833091409    -12664.880206785         0.948472072
       207          414.000000        23.647915377       177.801877495    -12689.813161327    -12664.618763420         1.299660659
       219          438.000000        30.370204888       228.344839824    -12696.887571614    -12664.815711629         0.520477959
        29           58.000000        24.270347543       182.481766011    -12689.548740519    -12664.632503625         0.971107139
       272          544.000000        27.317461277       205.392138203    -12693.748933628    -12664.676354495         0.479417243
        40           80.000000        26.228983905       197.208189758    -12691.693412415    -12664.747581562         0.654320070
       229          458.000000        30.568424198       229.835193832    -12697.148856510    -12664.816926709         0.666271330
       179          358.000000        26.681419192       200.609920612    -12692.735927808    -12664.629235845         4.930170288
       120          240.000000        31.369244611       235.856332298    -12697.337998507    -12664.823641234         5.080205692
       180          360.000000        27.864925104       209.508361336    -12693.976251030    -12664.666710801         0.232374714
       230          460.000000        33.758885859       253.823357872    -12700.479816978    -12664.905111285         0.323952617
       181          362.000000        30.950815142       232.710281406    -12697.214518601    -12664.768574677         0.650999527
       220          440.000000        33.307460090       250.429217296    -12699.976080867    -12664.909042620         0.537811610
        41           82.000000        30.521598592       229.483125559    -12696.138993809    -12664.859275273         0.523091386
         8           16.000000        25.919815261       194.883639600    -12690.572119943    -12664.634616175         4.312302485
       121          242.000000        26.889181254       202.172023832    -12692.673595796    -12664.681142904         0.495074081
        42           84.000000        33.678379308       253.218052259    -12699.407946735    -12664.941743419         0.230884629
       182          364.000000        34.410070362       258.719426950    -12700.844016306    -12664.881405354         0.396266212
         6           12.000000        36.639465828       275.481610561    -12701.614504324    -12664.870909297         2.289999355
        11           22.000000        28.084313004       211.157875889    -12693.178695774    -12664.764899631         2.366620017
       181          362.000000        30.950815142       232.710281406    -12697.214518601    -12664.768574677         0.531076464
       273          546.000000        25.550093969       192.103811493    -12691.912432677    -12664.615503672         0.956853329
         9           18.000000        23.691594669       178.130289528    -12688.341012321    -12664.598227917         0.223708780
       221          442.000000        34.492781145       259.341305554    -12701.221242829    -12664.942747558         0.640237012
        12           24.000000        32.189980902       242.027212528    -12697.598883016    -12664.893747593         4.704346897
       183          366.000000        36.521114341       274.591759751    -12703.061508924    -12664.949317065         0.314819451
       182          364.000000        34.410070362       258.719426950    -12700.844016306    -12664.881405354         0.324013800
       232          464.000000        33.831132262       254.366557807    -12700.560148084    -12664.911689437         0.498743386
       274          548.000000        26.361218132       198.202420895    -12692.781485368    -12664.641589569         0.421237138
       222          444.000000        33.321193470       250.532474632    -12699.999038273    -12664.905855647         0.292466684
       183          366.000000        36.521114341       274.591759751    -12703.061508924    -12664.949317065         0.230550455
        43           86.000000        34.555935662       259.816146213    -12700.305288193    -12664.959996105         0.747976386
       146          292.000000        36.059099803       271.118005258    -12702.478506927    -12664.969943805         0.627332966
       233          466.000000        30.821555034       231.738411814    -12697.408440096    -12664.818538764         0.278704244
       122          244.000000        24.165898381       181.696442790    -12689.853449144    -12664.591243915         0.949383456
       223          446.000000        30.236849537       227.342179272    -12696.782804150    -12664.818749312         0.382695621
       275          550.000000        29.366066956       220.795015374    -12695.945166045    -12664.739508393         0.415758817
        10           20.000000        24.667703187       185.469368870    -12689.478124791    -12664.649596439         0.845323873
        51          102.000000        38.323171727       288.140911189    -12704.318948912    -12664.988060591         2.535398267
       561         1122.000000        32.849797158       246.988181275    -12699.671776413    -12664.822672612         2.888476457
       184          368.000000        36.197096839       272.155565303    -12702.735611875    -12664.943026247         0.775832714
       147          294.000000        33.676792505       253.206121546    -12699.985409139    -12664.897881825         0.800359760
       224          448.000000        26.458392045       198.933043610    -12692.848424847    -12664.718054012         0.654146416
       123          246.000000        24.539299169       184.503935967    -12690.279804962    -12664.603321476         0.705861490
       562         1124.000000        30.982283483       232.946882821    -12697.729442878    -12664.772291224         0.280144021
       185          370.000000        33.442585989       251.445190084    -12699.878564202    -12664.869145692         0.273445591
        48           96.000000        27.813540339       209.122014060    -12693.274521064    -12664.671362769         2.723782063
                                                                                                                                           44           88.000000        32.990212766       248.043925861    -12698.655929811    -12664.902731154         1.068784697
        13           26.000000        34.995511128       263.121187770    -12700.644769266    -12664.981373093         1.505051496
         9           18.000000        23.691594669       178.130289528    -12688.341012321    -12664.598227917         8.311796822
       184          368.000000        36.197096839       272.155565303    -12702.735611875    -12664.943026247         1.499966989
       208          416.000000        24.050371158       180.827826812    -12690.237482296    -12664.629566289         2.763694883
         9           18.000000        23.691594669       178.130289528    -12688.341012321    -12664.598227917         6.293973105
       225          450.000000        23.442421461       176.256827808    -12689.712570231    -12664.640298091         0.287295440
        11           22.000000        28.084313004       211.157875889    -12693.178695774    -12664.764899631         6.276825637
        29           58.000000        24.270347543       182.481766011    -12689.548740519    -12664.632503625         2.876070629
        30           60.000000        27.567566747       207.272609333    -12693.174847190    -12664.742282291         2.902271786
       277          554.000000        35.789997403       269.094701677    -12702.668373816    -12664.930337647         0.547392013
       148          296.000000        29.450271913       221.428128243    -12695.583821499    -12664.785088036         0.739535812
       229          458.000000        30.568424198       229.835193832    -12697.148856510    -12664.816926709         3.808990525
        52          104.000000        38.144094234       286.794479000    -12704.125717627    -12664.980923600         1.137777042
        11           22.000000        28.084313004       211.157875889    -12693.178695774    -12664.764899631         1.347526548
       124          248.000000        27.832071058       209.261341207    -12693.759321690    -12664.710474829         0.751424840
        30           60.000000        27.567566747       207.272609333    -12693.174847190    -12664.742282291         3.956994807
       226          452.000000        22.329238838       167.887127681    -12688.558685659    -12664.610928301         0.650156402
       230          460.000000        33.758885859       253.823357872    -12700.479816978    -12664.905111285         0.461854961
       149          298.000000        25.007313276       188.022799499    -12690.970667860    -12664.673847910         0.509440253
        31           62.000000        31.917754237       239.980418493    -12697.857442407    -12664.881298561         0.272873727
        53          106.000000        35.159925351       264.357371047    -12701.002898085    -12664.895683063         0.499721058
       227          454.000000        23.548274258       177.052704562    -12689.831276491    -12664.639078796         0.329779553
        49           98.000000        31.563839869       237.319438102    -12697.225671995    -12664.782964047         1.336545162
       231          462.000000        35.004353664       263.187672260    -12701.784265841    -12664.943773176         0.351708345
       278          556.000000        36.224897775       272.364592553    -12703.112640320    -12664.934255911         1.101403508
       228          456.000000        26.675246331       200.563508643    -12693.089812599    -12664.716110650         0.322269525
       235          470.000000        25.367145602       190.728275318    -12691.674120240    -12664.635465939         1.364334395
        50          100.000000        35.712341812       268.510831614    -12701.584368018    -12664.910079556         0.341151049
        51          102.000000        38.323171727       288.140911189    -12704.318948912    -12664.988060591         0.204512317
       236          472.000000        25.687108355       193.133983272    -12691.994464623    -12664.641599841         0.515237339
       229          458.000000        30.568424198       229.835193832    -12697.148856510    -12664.816926709         0.553864528
        52          104.000000        38.144094234       286.794479000    -12704.125717627    -12664.980923600         0.194963093
       237          474.000000        28.301266865       212.789089597    -12694.717026218    -12664.721835097         0.272369274
       125          250.000000        32.446903708       243.958941244    -12698.608980998    -12664.854627845         1.653906900
       230          460.000000        33.758885859       253.823357872    -12700.479816978    -12664.905111285         0.329934517
        53          106.000000        35.159925351       264.357371047    -12701.002898085    -12664.895683063         0.372241148
       238          476.000000        31.996897111       240.575471012    -12698.569875922    -12664.833083635         0.281866422
        54          108.000000        30.527189175       229.525159548    -12696.170370172    -12664.771443683         0.211583545
        45           90.000000        29.936089528       225.080851232    -12695.455656420    -12664.793125053         2.714968658
       239          478.000000        35.069531557       263.677726097    -12701.769737805    -12664.919838118         0.253300146
       231          462.000000        35.004353664       263.187672260    -12701.784265841    -12664.943773176         0.472328025
        12           24.000000        32.189980902       242.027212528    -12697.598883016    -12664.893747593         2.250917759
        55          110.000000        26.021689817       195.649605104    -12691.484245501    -12664.657072240         0.198554270
       232          464.000000        33.831132262       254.366557807    -12700.560148084    -12664.911689437         0.310929545
        56          112.000000        23.313769279       175.289529043    -12688.681164216    -12664.592102296         0.296645440
        46           92.000000        27.096409496       203.730113412    -12692.486935707    -12664.683726383         0.423321077
       233          466.000000        30.821555034       231.738411814    -12697.408440096    -12664.818538764         0.252905826
       234          468.000000        27.437308635       206.293236033    -12693.855915495    -12664.707343854         0.219294851
       126          252.000000        36.201996635       272.192405459    -12702.541963900    -12664.963727021         1.410633557
       565         1130.000000        25.019618534       188.115319195    -12691.553457429    -12664.623153490         1.456714464
       235          470.000000        25.367145602       190.728275318    -12691.674120240    -12664.635465939         0.216622580
       127          254.000000        37.390187775       281.126073065    -12703.781249076    -12664.991058161         0.215738499
       236          472.000000        25.687108355       193.133983272    -12691.994464624    -12664.641599842         0.487042579
       237          474.000000        28.301266865       212.789089597    -12694.717026219    -12664.721835097         0.218158540
       238          476.000000        31.996897111       240.575471012    -12698.569875922    -12664.833083635         0.214261673
       239          478.000000        35.069531557       263.677726097    -12701.769737805    -12664.919838118         0.215665787
       240          480.000000        36.143528593       271.752801066    -12702.883914704    -12664.943836522         0.215225672
       241          482.000000        34.758647993       261.340281950    -12701.440015528    -12664.898950556         0.475962707
       242          484.000000        31.490678745       236.769360646    -12698.044426920    -12664.807620255         0.222910996
       186          372.000000        29.284889999       220.184669174    -12695.565767113    -12664.760583518         5.912862724
        31           62.000000        31.917754237       239.980418493    -12697.857442407    -12664.881298561         5.618669267
       243          486.000000        27.639041355       207.810006364    -12694.050790243    -12664.706563400         0.252111061
        32           64.000000        35.225725620       264.852104359    -12701.385502755    -12664.980452281         0.233908132
       187          374.000000        25.300541306       190.227496757    -12691.437215178    -12664.659229076         0.345803662
       244          488.000000        24.682044590       185.577197753    -12690.992262033    -12664.631685368         0.251002846
       188          376.000000        22.986948283       172.832255924    -12689.044775620    -12664.600740582         0.238237019
        33           66.000000        35.933082174       270.170514935    -12702.132876362    -12664.995944756         0.318921457
       245          490.000000        23.728184613       178.405398797    -12690.014846048    -12664.607619342         0.226777922
       189          378.000000        23.215217095       174.548543500    -12689.288385587    -12664.604995540         0.358277351
       190          380.000000        25.921781996       194.898426913    -12692.100175002    -12664.671635167         0.227337770
        54          108.000000        30.527189175       229.525159548    -12696.170370172    -12664.771443683         6.241908143
       186          372.000000        29.284889999       220.184669174    -12695.565767113    -12664.760583518         6.193025780
       191          382.000000        30.115439087       226.429329005    -12696.452563298    -12664.779593050         0.498891964
       187          374.000000        25.300541306       190.227496757    -12691.437215178    -12664.659229076         0.480400058
       188          376.000000        22.986948283       172.832255924    -12689.044775620    -12664.600740582         0.220068520