 DBCSR| CPU Multiplication driver                                           XSMM
 DBCSR| Multrec recursion limit                                              512
 DBCSR| Multiplication stack size                                           1000
 DBCSR| Maximum elements for images                                    UNLIMITED
 DBCSR| Multiplicative factor virtual images                                   1
 DBCSR| Use multiplication densification                                       T
 DBCSR| Multiplication size stacks                                             3
 DBCSR| Number of 3D layers                                               SINGLE
 DBCSR| Use MPI memory allocation                                              T
 DBCSR| Use RMA algorithm                                                      F
 DBCSR| Use Communication thread                                               T
 DBCSR| Communication thread load                                             75


  **** **** ******  **  PROGRAM STARTED AT               2023-07-24 10:57:26.887
 ***** ** ***  *** **   PROGRAM STARTED ON                               r1i4n17
 **    ****   ******    PROGRAM STARTED BY                         mrnuff-cirrus
 ***** **    ** ** **   PROGRAM PROCESS ID                               3268138
  **** **  *******  **  PROGRAM STARTED IN /mnt/lustre/indy2lfs/work/tc047/tc047
                                           /mrnuff-cirrus/cp2k

 CP2K| version string:                                          CP2K version 7.1
 CP2K| source code revision number:                                  git:e635599
 CP2K| cp2kflags: omp libint fftw3 libxc elpa parallel mpi3 scalapack xsmm max_c
 CP2K|            ontr=4 plumed2 spglib mkl
 CP2K| is freely available from                            https://www.cp2k.org/
 CP2K| Program compiled at                          Thu Jun 30 12:29:55 BST 2022
 CP2K| Program compiled on                                         cirrus-login3
 CP2K| Program compiled for                                         Cirrus-intel
 CP2K| Data directory path       /mnt/lustre/indy2lfs/sw/cp2k/7.1/cp2k/cp2k/data
 CP2K| Input file name                                  benchmarks/QS/H2O-64.inp
 
 GLOBAL| Force Environment number                                              1
 GLOBAL| Basis set file name                                      GTH_BASIS_SETS
 GLOBAL| Potential file name                                           POTENTIAL
 GLOBAL| MM Potential file name                                     MM_POTENTIAL
 GLOBAL| Coordinate file name                                      __STD_INPUT__
 GLOBAL| Method name                                                        CP2K
 GLOBAL| Project name                                                     H2O-64
 GLOBAL| Preferred FFT library                                             FFTW3
 GLOBAL| Preferred diagonalization lib.                                     ELPA
 GLOBAL| Run type                                                             MD
 GLOBAL| All-to-all communication in single precision                          F
 GLOBAL| FFTs using library dependent lengths                                  F
 GLOBAL| Global print level                                                  LOW
 GLOBAL| MPI I/O enabled                                                       T
 GLOBAL| Total number of message passing processes                             9
 GLOBAL| Number of threads for this process                                    4
 GLOBAL| This output is from process                                           0
 GLOBAL| CPU model name                Intel(R) Xeon(R) CPU E5-2695 v4 @ 2.10GHz
 GLOBAL| CPUID                                                              1002
 GLOBAL| Compiled for CPUID                                                    0

 MEMORY| system memory details [Kb]
 MEMORY|                        rank 0           min           max       average
 MEMORY| MemTotal            263585924     263585924     263585924     263585924
 MEMORY| MemFree             258669472     258669472     258669472     258669472
 MEMORY| Buffers                    64            64            64            64
 MEMORY| Cached                 288044        288044        288044        288044
 MEMORY| Slab                  1666884       1666884       1666884       1666884
 MEMORY| SReclaimable           139824        139824        139824        139824
 MEMORY| MemLikelyFree       259097404     259097404     259097404     259097404

 
 GENERATE|  Preliminary Number of Bonds generated:                             0
 GENERATE|  Achieved consistency in connectivity generation.

 *******************************************************************************
 *******************************************************************************
 **                                                                           **
 **     #####                         ##              ##                      **
 **    ##   ##            ##          ##              ##                      **
 **   ##     ##                       ##            ######                    **
 **   ##     ##  ##   ##  ##   #####  ##  ##   ####   ##    #####    #####    **
 **   ##     ##  ##   ##  ##  ##      ## ##   ##      ##   ##   ##  ##   ##   **
 **   ##  ## ##  ##   ##  ##  ##      ####     ###    ##   ######   ######    **
 **    ##  ###   ##   ##  ##  ##      ## ##      ##   ##   ##       ##        **
 **     #######   #####   ##   #####  ##  ##  ####    ##    #####   ##        **
 **           ##                                                    ##        **
 **                                                                           **
 **                                                ... make the atoms dance   **
 **                                                                           **
 **            Copyright (C) by CP2K developers group (2000 - 2019)           **
 **                                                                           **
 *******************************************************************************


 TOTAL NUMBERS AND MAXIMUM NUMBERS

  Total number of            - Atomic kinds:                                   2
                             - Atoms:                                        192
                             - Shell sets:                                   384
                             - Shells:                                      1152
                             - Primitive Cartesian functions:               1344
                             - Cartesian basis functions:                   2688
                             - Spherical basis functions:                   2560

  Maximum angular momentum of- Orbital basis functions:                        2
                             - Local part of the GTH pseudopotential:          2
                             - Non-local part of the GTH pseudopotential:      0


 SCF PARAMETERS         Density guess:                                    ATOMIC
                        --------------------------------------------------------
                        max_scf:                                              50
                        max_scf_history:                                       0
                        max_diis:                                              4
                        --------------------------------------------------------
                        eps_scf:                                        1.00E-05
                        eps_scf_history:                                0.00E+00
                        eps_diis:                                       1.00E-01
                        eps_eigval:                                     1.00E-05
                        --------------------------------------------------------
                        level_shift [a.u.]:                                 0.00
                        --------------------------------------------------------
                        No outer SCF
 
 MD| Molecular Dynamics Protocol 
 MD| Ensemble Type                                                           NVE
 MD| Number of Time Steps                                                     10
 MD| Time Step [fs]                                                         0.50
 MD| Temperature [K]                                                      300.00
 MD| Temperature tolerance [K]                                              0.00
 MD| Print MD information every                                        1 step(s)
 MD| File type     Print frequency[steps]                             File names
 MD| Coordinates            1                                   H2O-64-pos-1.xyz
 MD| Velocities             1                                   H2O-64-vel-1.xyz
 MD| Energies               1                                      H2O-64-1.ener
 MD| Dump                  20                                   H2O-64-1.restart
 
 ROT| Rotational Analysis Info 
 ROT| Principal axes and moments of inertia in atomic units:
 ROT|                                1                 2                 3
 ROT| EIGENVALUES            0.174175353E+09   0.187507692E+09   0.199545123E+09
 ROT|      X                    -0.734964520       0.242599134       0.633224142
 ROT|      Y                    -0.044883650       0.914361712      -0.402402930
 ROT|      Z                    -0.676618513      -0.324173287      -0.661134682
 ROT| Number of Rotovibrational vectors:     6

 Calculation of degrees of freedom
                                                      Number of atoms:       192
                                 Number of Intramolecular constraints:         0
                                 Number of Intermolecular constraints:         0
                                  Invariants(translation + rotations):         3
                                                   Degrees of freedom:       573


 Restraints Information
                                  Number of Intramolecular restraints:         0
                                  Number of Intermolecular restraints:         0
 ************************** Velocities initialization **************************
 Initial Temperature                                                    300.00 K
 COM velocity:           -0.000000000000     -0.000000000000     -0.000000000000
 *******************************************************************************


 Number of electrons:                                                        512
 Number of occupied orbitals:                                                256
 Number of molecular orbitals:                                               256

 Number of orbital functions:                                               2560
 Number of independent orbital functions:                                   2560

 Extrapolation method: initial_guess


 SCF WAVEFUNCTION OPTIMIZATION

  ----------------------------------- OT ---------------------------------------
  Minimizer      : DIIS                : direct inversion
                                         in the iterative subspace
                                         using   7 DIIS vectors
                                         safer DIIS on
  Preconditioner : FULL_KINETIC        : inversion of T + eS
  Precond_solver : DEFAULT
  stepsize       :    0.15000000                  energy_gap     :    0.20000000
  eps_taylor     :   0.10000E-15                  max_taylor     :             4
  ----------------------------------- OT ---------------------------------------

  Step     Update method      Time    Convergence         Total energy    Change
  ------------------------------------------------------------------------------
     1 OT DIIS     0.15E+00    1.1     0.01332027     -1059.3825086354 -1.06E+03
     2 OT DIIS     0.15E+00    0.7     0.00868183     -1073.0837986870 -1.37E+01
     3 OT DIIS     0.15E+00    0.7     0.00608177     -1082.3329453028 -9.25E+00
     4 OT DIIS     0.15E+00    0.7     0.00420419     -1088.9991950661 -6.67E+00
     5 OT DIIS     0.15E+00    0.7     0.00319228     -1092.5975699473 -3.60E+00
     6 OT DIIS     0.15E+00    0.7     0.00242089     -1095.2728740329 -2.68E+00
     7 OT DIIS     0.15E+00    0.7     0.00180823     -1097.1827113587 -1.91E+00
     8 OT DIIS     0.15E+00    0.7     0.00136563     -1098.4047634831 -1.22E+00
     9 OT DIIS     0.15E+00    0.7     0.00107154     -1099.0957255862 -6.91E-01
    10 OT DIIS     0.15E+00    0.7     0.00085958     -1099.5568480761 -4.61E-01
    11 OT DIIS     0.15E+00    0.7     0.00070902     -1099.8674347814 -3.11E-01
    12 OT DIIS     0.15E+00    0.7     0.00059349     -1100.0778295692 -2.10E-01
    13 OT DIIS     0.15E+00    0.7     0.00050949     -1100.2324066357 -1.55E-01
    14 OT DIIS     0.15E+00    0.7     0.00044833     -1100.3361498733 -1.04E-01
    15 OT DIIS     0.15E+00    0.7     0.00039690     -1100.4341575919 -9.80E-02
    16 OT DIIS     0.15E+00    0.7     0.00035862     -1100.5038829651 -6.97E-02
    17 OT DIIS     0.15E+00    0.7     0.00034534     -1100.5572960103 -5.34E-02
    18 OT DIIS     0.15E+00    0.7     0.00034139     -1100.5793052412 -2.20E-02
    19 OT DIIS     0.15E+00    0.7     0.00033463     -1100.5947747647 -1.55E-02
    20 OT SD       0.15E+00    0.7     0.00033658     -1100.6056259094 -1.09E-02
    21 OT DIIS     0.15E+00    0.7     0.00033500     -1100.6167318134 -1.11E-02
    22 OT DIIS     0.15E+00    0.7     0.00032752     -1100.6181770013 -1.45E-03
    23 OT DIIS     0.15E+00    0.7     0.00032184     -1100.6243784233 -6.20E-03
    24 OT DIIS     0.15E+00    0.7     0.00030944     -1100.6371107281 -1.27E-02
    25 OT SD       0.15E+00    0.7     0.00030022     -1100.6455937723 -8.48E-03
    26 OT DIIS     0.15E+00    0.7     0.00029911     -1100.6544327620 -8.84E-03
    27 OT DIIS     0.15E+00    0.7     0.00028893     -1100.6591651031 -4.73E-03
    28 OT SD       0.15E+00    0.7     0.00028473     -1100.6665449234 -7.38E-03
    29 OT SD       0.15E+00    0.7     0.00028442     -1100.6745059988 -7.96E-03
    30 OT SD       0.15E+00    0.7     0.00028480     -1100.6824615830 -7.96E-03
    31 OT SD       0.15E+00    0.7     0.00028544     -1100.6904429284 -7.98E-03
    32 OT DIIS     0.15E+00    0.7     0.00028617     -1100.6984620163 -8.02E-03
    33 OT SD       0.15E+00    0.7     0.00033211     -1100.7435544696 -4.51E-02
    34 OT SD       0.15E+00    0.7     0.00031462     -1100.7540544102 -1.05E-02
    35 OT SD       0.15E+00    0.7     0.00030588     -1100.7636302757 -9.58E-03
    36 OT SD       0.15E+00    0.7     0.00030057     -1100.7727389545 -9.11E-03
    37 OT SD       0.15E+00    0.7     0.00029679     -1100.7815597226 -8.82E-03
    38 OT SD       0.15E+00    0.7     0.00029367     -1100.7901709573 -8.61E-03
    39 OT DIIS     0.15E+00    0.7     0.00029082     -1100.7986066853 -8.44E-03
    40 OT SD       0.15E+00    0.7     0.00016833     -1100.9875339789 -1.89E-01
    41 OT DIIS     0.15E+00    0.7     0.00014750     -1100.9900984671 -2.56E-03
    42 OT DIIS     0.15E+00    0.7     0.00023356     -1100.9860321898  4.07E-03
    43 OT DIIS     0.15E+00    0.7     0.00017589     -1100.9988983841 -1.29E-02
    44 OT DIIS     0.15E+00    0.7     0.00022227     -1101.0010807324 -2.18E-03
    45 OT DIIS     0.15E+00    0.7     0.00015342     -1101.0160489386 -1.50E-02
    46 OT DIIS     0.15E+00    0.7     0.00005874     -1101.0255694169 -9.52E-03
    47 OT DIIS     0.15E+00    0.7     0.00007361     -1101.0255456258  2.38E-05
    48 OT DIIS     0.15E+00    0.7     0.00005773     -1101.0267770428 -1.23E-03
    49 OT DIIS     0.15E+00    0.7     0.00005383     -1101.0275708712 -7.94E-04
    50 OT DIIS     0.15E+00    0.7     0.00004288     -1101.0287871470 -1.22E-03

  Leaving inner SCF loop after reaching    50 steps.


  Electronic density on regular grids:       -512.0000015470       -0.0000015470
  Core density on regular grids:              512.0000000045        0.0000000045
  Total charge density on r-space grids:       -0.0000015425
  Total charge density g-space grids:          -0.0000015425

  Overlap energy of the core charge distribution:               0.00000562599749
  Self energy of the core charge distribution:              -2805.30499493854950
  Core Hamiltonian energy:                                    825.29378313880102
  Hartree energy:                                            1145.26167488718988
  Exchange-correlation energy:                               -266.27925586048303

  Total energy:                                             -1101.02878714704434

 *** WARNING in qs_scf.F:542 :: SCF run NOT converged ***


 ENERGY| Total FORCE_EVAL ( QS ) energy (a.u.):            -1101.031005888885147

 
 MD_ENERGIES| Initialization proceeding
 

 ******************************** GO CP2K GO! **********************************
 INITIAL POTENTIAL ENERGY[hartree]     =                     -0.110103100589E+04
 INITIAL KINETIC ENERGY[hartree]       =                      0.272187778755E+00
 INITIAL TEMPERATURE[K]                =                                 300.000
 INITIAL VOLUME[bohr^3]                =                      0.129095421321E+05
 INITIAL CELL LNTHS[bohr]   =      0.2345868E+02   0.2345868E+02   0.2345868E+02
 INITIAL CELL ANGLS[deg]    =      0.9000000E+02   0.9000000E+02   0.9000000E+02
 ******************************** GO CP2K GO! **********************************

 Number of electrons:                                                        512
 Number of occupied orbitals:                                                256
 Number of molecular orbitals:                                               256

 Number of orbital functions:                                               2560
 Number of independent orbital functions:                                   2560

 Extrapolation method: PS Nth order


 SCF WAVEFUNCTION OPTIMIZATION

  ----------------------------------- OT ---------------------------------------
  Minimizer      : DIIS                : direct inversion
                                         in the iterative subspace
                                         using   7 DIIS vectors
                                         safer DIIS on
  Preconditioner : FULL_KINETIC        : inversion of T + eS
  Precond_solver : DEFAULT
  stepsize       :    0.15000000                  energy_gap     :    0.20000000
  eps_taylor     :   0.10000E-15                  max_taylor     :             4
  ----------------------------------- OT ---------------------------------------

  Step     Update method      Time    Convergence         Total energy    Change
  ------------------------------------------------------------------------------
     1 OT DIIS     0.15E+00    0.6     0.00024950     -1101.0278021259 -1.10E+03
     2 OT DIIS     0.15E+00    0.7     0.00016075     -1101.0327084347 -4.91E-03
     3 OT DIIS     0.15E+00    0.6     0.00009051     -1101.0362859403 -3.58E-03
     4 OT DIIS     0.15E+00    0.6     0.00006200     -1101.0377275198 -1.44E-03
     5 OT DIIS     0.15E+00    0.6     0.00003797     -1101.0386877144 -9.60E-04
     6 OT DIIS     0.15E+00    0.7     0.00002205     -1101.0391017420 -4.14E-04
     7 OT DIIS     0.15E+00    0.7     0.00001260     -1101.0392355422 -1.34E-04
     8 OT DIIS     0.15E+00    0.7     0.00000723     -1101.0392767847 -4.12E-05

  *** SCF run converged in     8 steps ***


  Electronic density on regular grids:       -512.0000014905       -0.0000014905
  Core density on regular grids:              511.9999999975       -0.0000000025
  Total charge density on r-space grids:       -0.0000014931
  Total charge density g-space grids:          -0.0000014931

  Overlap energy of the core charge distribution:               0.00000554074576
  Self energy of the core charge distribution:              -2805.30499493854950
  Core Hamiltonian energy:                                    824.99709644249231
  Hartree energy:                                            1145.47089262752024
  Exchange-correlation energy:                               -266.20227645692637

  Total energy:                                             -1101.03927678471746

 ENERGY| Total FORCE_EVAL ( QS ) energy (a.u.):            -1101.039289567771675


 *******************************************************************************
 ENSEMBLE TYPE                =                                              NVE
 STEP NUMBER                  =                                                1
 TIME [fs]                    =                                         0.500000
 CONSERVED QUANTITY [hartree] =                              -0.110076554067E+04

                                              INSTANTANEOUS             AVERAGES
 CPU TIME [s]                 =                       42.62                42.62
 ENERGY DRIFT PER ATOM [K]    =         -0.110563238180E+02   0.000000000000E+00
 POTENTIAL ENERGY[hartree]    =         -0.110103928957E+04  -0.110103928957E+04
 KINETIC ENERGY [hartree]     =          0.273748897148E+00   0.273748897148E+00
 TEMPERATURE [K]              =                     301.721              301.721
 *******************************************************************************


 Number of electrons:                                                        512
 Number of occupied orbitals:                                                256
 Number of molecular orbitals:                                               256

 Number of orbital functions:                                               2560
 Number of independent orbital functions:                                   2560

 Extrapolation method: PS Nth order


 SCF WAVEFUNCTION OPTIMIZATION

  ----------------------------------- OT ---------------------------------------
  Minimizer      : DIIS                : direct inversion
                                         in the iterative subspace
                                         using   7 DIIS vectors
                                         safer DIIS on
  Preconditioner : FULL_KINETIC        : inversion of T + eS
  Precond_solver : DEFAULT
  stepsize       :    0.15000000                  energy_gap     :    0.20000000
  eps_taylor     :   0.10000E-15                  max_taylor     :             4
  ----------------------------------- OT ---------------------------------------

  Step     Update method      Time    Convergence         Total energy    Change
  ------------------------------------------------------------------------------
     1 OT DIIS     0.15E+00    0.6     0.00018188     -1101.0453203602 -1.10E+03
     2 OT DIIS     0.15E+00    0.6     0.00012504     -1101.0480047348 -2.68E-03
     3 OT DIIS     0.15E+00    0.6     0.00007518     -1101.0503824746 -2.38E-03
     4 OT DIIS     0.15E+00    0.6     0.00005150     -1101.0514775397 -1.10E-03
     5 OT DIIS     0.15E+00    0.6     0.00002882     -1101.0522243275 -7.47E-04
     6 OT DIIS     0.15E+00    0.7     0.00001713     -1101.0524515200 -2.27E-04
     7 OT DIIS     0.15E+00    0.7     0.00000972     -1101.0525297399 -7.82E-05

  *** SCF run converged in     7 steps ***


  Electronic density on regular grids:       -512.0000014194       -0.0000014194
  Core density on regular grids:              511.9999999954       -0.0000000046
  Total charge density on r-space grids:       -0.0000014240
  Total charge density g-space grids:          -0.0000014240

  Overlap energy of the core charge distribution:               0.00000508717596
  Self energy of the core charge distribution:              -2805.30499493854950
  Core Hamiltonian energy:                                    823.99099462382628
  Hartree energy:                                            1146.19319039101219
  Exchange-correlation energy:                               -265.93172490334155

  Total energy:                                             -1101.05252973987672

 ENERGY| Total FORCE_EVAL ( QS ) energy (a.u.):            -1101.052553911873019


 *******************************************************************************
 ENSEMBLE TYPE                =                                              NVE
 STEP NUMBER                  =                                                2
 TIME [fs]                    =                                         1.000000
 CONSERVED QUANTITY [hartree] =                              -0.110076574941E+04

                                              INSTANTANEOUS             AVERAGES
 CPU TIME [s]                 =                        6.03                24.33
 ENERGY DRIFT PER ATOM [K]    =         -0.113996294701E+02  -0.569981473506E+01
 POTENTIAL ENERGY[hartree]    =         -0.110105255391E+04  -0.110104592174E+04
 KINETIC ENERGY [hartree]     =          0.286804501613E+00   0.280276699380E+00
 TEMPERATURE [K]              =                     316.110              308.915
 *******************************************************************************


 Number of electrons:                                                        512
 Number of occupied orbitals:                                                256
 Number of molecular orbitals:                                               256

 Number of orbital functions:                                               2560
 Number of independent orbital functions:                                   2560

 Extrapolation method: PS Nth order


 SCF WAVEFUNCTION OPTIMIZATION

  ----------------------------------- OT ---------------------------------------
  Minimizer      : DIIS                : direct inversion
                                         in the iterative subspace
                                         using   7 DIIS vectors
                                         safer DIIS on
  Preconditioner : FULL_KINETIC        : inversion of T + eS
  Precond_solver : DEFAULT
  stepsize       :    0.15000000                  energy_gap     :    0.20000000
  eps_taylor     :   0.10000E-15                  max_taylor     :             4
  ----------------------------------- OT ---------------------------------------

  Step     Update method      Time    Convergence         Total energy    Change
  ------------------------------------------------------------------------------
     1 OT DIIS     0.15E+00    0.6     0.00016600     -1101.0673391765 -1.10E+03
     2 OT DIIS     0.15E+00    0.6     0.00011756     -1101.0696099926 -2.27E-03
     3 OT DIIS     0.15E+00    0.6     0.00007011     -1101.0718400827 -2.23E-03
     4 OT DIIS     0.15E+00    0.6     0.00004687     -1101.0728158232 -9.76E-04
     5 OT DIIS     0.15E+00    0.7     0.00002506     -1101.0734352383 -6.19E-04
     6 OT DIIS     0.15E+00    0.7     0.00001527     -1101.0735929560 -1.58E-04
     7 OT DIIS     0.15E+00    0.7     0.00000857     -1101.0736544830 -6.15E-05

  *** SCF run converged in     7 steps ***


  Electronic density on regular grids:       -512.0000013333       -0.0000013333
  Core density on regular grids:              511.9999999979       -0.0000000021
  Total charge density on r-space grids:       -0.0000013354
  Total charge density g-space grids:          -0.0000013354

  Overlap energy of the core charge distribution:               0.00000421676033
  Self energy of the core charge distribution:              -2805.30499493854950
  Core Hamiltonian energy:                                    822.43891672541076
  Hartree energy:                                            1147.30180967808815
  Exchange-correlation energy:                               -265.50939016470215

  Total energy:                                             -1101.07365448299242

 ENERGY| Total FORCE_EVAL ( QS ) energy (a.u.):            -1101.073673410228366


 *******************************************************************************
 ENSEMBLE TYPE                =                                              NVE
 STEP NUMBER                  =                                                3
 TIME [fs]                    =                                         1.500000
 CONSERVED QUANTITY [hartree] =                              -0.110076623800E+04

                                              INSTANTANEOUS             AVERAGES
 CPU TIME [s]                 =                        6.07                18.24
 ENERGY DRIFT PER ATOM [K]    =         -0.122031985334E+02  -0.786760933450E+01
 POTENTIAL ENERGY[hartree]    =         -0.110107367341E+04  -0.110105517230E+04
 KINETIC ENERGY [hartree]     =          0.307435407039E+00   0.289329601933E+00
 TEMPERATURE [K]              =                     338.849              318.893
 *******************************************************************************


 Number of electrons:                                                        512
 Number of occupied orbitals:                                                256
 Number of molecular orbitals:                                               256

 Number of orbital functions:                                               2560
 Number of independent orbital functions:                                   2560

 Extrapolation method: PS Nth order


 SCF WAVEFUNCTION OPTIMIZATION

  ----------------------------------- OT ---------------------------------------
  Minimizer      : DIIS                : direct inversion
                                         in the iterative subspace
                                         using   7 DIIS vectors
                                         safer DIIS on
  Preconditioner : FULL_KINETIC        : inversion of T + eS
  Precond_solver : DEFAULT
  stepsize       :    0.15000000                  energy_gap     :    0.20000000
  eps_taylor     :   0.10000E-15                  max_taylor     :             4
  ----------------------------------- OT ---------------------------------------

  Step     Update method      Time    Convergence         Total energy    Change
  ------------------------------------------------------------------------------
     1 OT DIIS     0.15E+00    0.6     0.00016901     -1101.0882805767 -1.10E+03
     2 OT DIIS     0.15E+00    0.7     0.00012004     -1101.0906385619 -2.36E-03
     3 OT DIIS     0.15E+00    0.6     0.00006991     -1101.0929758701 -2.34E-03
     4 OT DIIS     0.15E+00    0.7     0.00004370     -1101.0939496869 -9.74E-04
     5 OT DIIS     0.15E+00    0.7     0.00002172     -1101.0944515116 -5.02E-04
     6 OT DIIS     0.15E+00    0.7     0.00001364     -1101.0945537894 -1.02E-04
     7 OT DIIS     0.15E+00    0.7     0.00000750     -1101.0946004843 -4.67E-05

  *** SCF run converged in     7 steps ***


  Electronic density on regular grids:       -512.0000012177       -0.0000012177
  Core density on regular grids:              512.0000000002        0.0000000002
  Total charge density on r-space grids:       -0.0000012176
  Total charge density g-space grids:          -0.0000012176

  Overlap energy of the core charge distribution:               0.00000308048317
  Self energy of the core charge distribution:              -2805.30499493854950
  Core Hamiltonian energy:                                    820.48664247915519
  Hartree energy:                                            1148.70443626897372
  Exchange-correlation energy:                               -264.98068737438734

  Total energy:                                             -1101.09460048432470

 ENERGY| Total FORCE_EVAL ( QS ) energy (a.u.):            -1101.094614862854087


 *******************************************************************************
 ENSEMBLE TYPE                =                                              NVE
 STEP NUMBER                  =                                                4
 TIME [fs]                    =                                         2.000000
 CONSERVED QUANTITY [hartree] =                              -0.110076681835E+04

                                              INSTANTANEOUS             AVERAGES
 CPU TIME [s]                 =                        6.11                15.21
 ENERGY DRIFT PER ATOM [K]    =         -0.131576704193E+02  -0.919012460569E+01
 POTENTIAL ENERGY[hartree]    =         -0.110109461486E+04  -0.110106503294E+04
 KINETIC ENERGY [hartree]     =          0.327796513512E+00   0.298946329828E+00
 TEMPERATURE [K]              =                     361.291              329.493
 *******************************************************************************


 Number of electrons:                                                        512
 Number of occupied orbitals:                                                256
 Number of molecular orbitals:                                               256

 Number of orbital functions:                                               2560
 Number of independent orbital functions:                                   2560

 Extrapolation method: PS Nth order


 SCF WAVEFUNCTION OPTIMIZATION

  ----------------------------------- OT ---------------------------------------
  Minimizer      : DIIS                : direct inversion
                                         in the iterative subspace
                                         using   7 DIIS vectors
                                         safer DIIS on
  Preconditioner : FULL_KINETIC        : inversion of T + eS
  Precond_solver : DEFAULT
  stepsize       :    0.15000000                  energy_gap     :    0.20000000
  eps_taylor     :   0.10000E-15                  max_taylor     :             4
  ----------------------------------- OT ---------------------------------------

  Step     Update method      Time    Convergence         Total energy    Change
  ------------------------------------------------------------------------------
     1 OT DIIS     0.15E+00    0.6     0.00006426     -1101.1044107587 -1.10E+03
     2 OT DIIS     0.15E+00    0.6     0.00005316     -1101.1047785953 -3.68E-04
     3 OT DIIS     0.15E+00    0.6     0.00003233     -1101.1054482932 -6.70E-04
     4 OT DIIS     0.15E+00    0.6     0.00002194     -1101.1057147469 -2.66E-04
     5 OT DIIS     0.15E+00    0.6     0.00001212     -1101.1058730821 -1.58E-04
     6 OT DIIS     0.15E+00    0.6     0.00000783     -1101.1059135917 -4.05E-05

  *** SCF run converged in     6 steps ***


  Electronic density on regular grids:       -512.0000010688       -0.0000010688
  Core density on regular grids:              511.9999999989       -0.0000000011
  Total charge density on r-space grids:       -0.0000010699
  Total charge density g-space grids:          -0.0000010699

  Overlap energy of the core charge distribution:               0.00000200945098
  Self energy of the core charge distribution:              -2805.30499493854950
  Core Hamiltonian energy:                                    818.39013702351599
  Hartree energy:                                            1150.21806280681380
  Exchange-correlation energy:                               -264.40912049291734

  Total energy:                                             -1101.10591359168620

 ENERGY| Total FORCE_EVAL ( QS ) energy (a.u.):            -1101.105932126500193


 *******************************************************************************
 ENSEMBLE TYPE                =                                              NVE
 STEP NUMBER                  =                                                5
 TIME [fs]                    =                                         2.500000
 CONSERVED QUANTITY [hartree] =                              -0.110076715531E+04

                                              INSTANTANEOUS             AVERAGES
 CPU TIME [s]                 =                        5.42                13.25
 ENERGY DRIFT PER ATOM [K]    =         -0.137118611596E+02  -0.100944719165E+02
 POTENTIAL ENERGY[hartree]    =         -0.110110593213E+04  -0.110107321278E+04
 KINETIC ENERGY [hartree]     =          0.338776813368E+00   0.306912426536E+00
 TEMPERATURE [K]              =                     373.393              338.273
 *******************************************************************************


 Number of electrons:                                                        512
 Number of occupied orbitals:                                                256
 Number of molecular orbitals:                                               256

 Number of orbital functions:                                               2560
 Number of independent orbital functions:                                   2560

 Extrapolation method: PS Nth order


 SCF WAVEFUNCTION OPTIMIZATION

  ----------------------------------- OT ---------------------------------------
  Minimizer      : DIIS                : direct inversion
                                         in the iterative subspace
                                         using   7 DIIS vectors
                                         safer DIIS on
  Preconditioner : FULL_KINETIC        : inversion of T + eS
  Precond_solver : DEFAULT
  stepsize       :    0.15000000                  energy_gap     :    0.20000000
  eps_taylor     :   0.10000E-15                  max_taylor     :             4
  ----------------------------------- OT ---------------------------------------

  Step     Update method      Time    Convergence         Total energy    Change
  ------------------------------------------------------------------------------
     1 OT DIIS     0.15E+00    0.6     0.00004706     -1101.1011338470 -1.10E+03
     2 OT DIIS     0.15E+00    0.6     0.00003814     -1101.1013292817 -1.95E-04
     3 OT DIIS     0.15E+00    0.6     0.00002079     -1101.1016568551 -3.28E-04
     4 OT DIIS     0.15E+00    0.6     0.00001223     -1101.1017643299 -1.07E-04
     5 OT DIIS     0.15E+00    0.6     0.00000730     -1101.1018023287 -3.80E-05

  *** SCF run converged in     5 steps ***


  Electronic density on regular grids:       -512.0000009008       -0.0000009008
  Core density on regular grids:              511.9999999941       -0.0000000059
  Total charge density on r-space grids:       -0.0000009067
  Total charge density g-space grids:          -0.0000009067

  Overlap energy of the core charge distribution:               0.00000123724772
  Self energy of the core charge distribution:              -2805.30499493854950
  Core Hamiltonian energy:                                    816.35636903917384
  Hartree energy:                                            1151.70037347703601
  Exchange-correlation energy:                               -263.85355114365126

  Total energy:                                             -1101.10180232874291

 ENERGY| Total FORCE_EVAL ( QS ) energy (a.u.):            -1101.101815171088219


 *******************************************************************************
 ENSEMBLE TYPE                =                                              NVE
 STEP NUMBER                  =                                                6
 TIME [fs]                    =                                         3.000000
 CONSERVED QUANTITY [hartree] =                              -0.110076702437E+04

                                              INSTANTANEOUS             AVERAGES
 CPU TIME [s]                 =                        4.78                11.84
 ENERGY DRIFT PER ATOM [K]    =         -0.134964998459E+02  -0.106614765714E+02
 POTENTIAL ENERGY[hartree]    =         -0.110110181517E+04  -0.110107797984E+04
 KINETIC ENERGY [hartree]     =          0.334790803782E+00   0.311558822744E+00
 TEMPERATURE [K]              =                     369.000              343.394
 *******************************************************************************


 Number of electrons:                                                        512
 Number of occupied orbitals:                                                256
 Number of molecular orbitals:                                               256

 Number of orbital functions:                                               2560
 Number of independent orbital functions:                                   2560

 Extrapolation method: PS Nth order


 SCF WAVEFUNCTION OPTIMIZATION

  ----------------------------------- OT ---------------------------------------
  Minimizer      : DIIS                : direct inversion
                                         in the iterative subspace
                                         using   7 DIIS vectors
                                         safer DIIS on
  Preconditioner : FULL_KINETIC        : inversion of T + eS
  Precond_solver : DEFAULT
  stepsize       :    0.15000000                  energy_gap     :    0.20000000
  eps_taylor     :   0.10000E-15                  max_taylor     :             4
  ----------------------------------- OT ---------------------------------------

  Step     Update method      Time    Convergence         Total energy    Change
  ------------------------------------------------------------------------------
     1 OT DIIS     0.15E+00    0.6     0.00004011     -1101.0829341795 -1.10E+03
     2 OT DIIS     0.15E+00    0.6     0.00003295     -1101.0830774902 -1.43E-04
     3 OT DIIS     0.15E+00    0.6     0.00001490     -1101.0833518520 -2.74E-04
     4 OT DIIS     0.15E+00    0.6     0.00000897     -1101.0834070937 -5.52E-05

  *** SCF run converged in     4 steps ***


  Electronic density on regular grids:       -512.0000007415       -0.0000007415
  Core density on regular grids:              511.9999999906       -0.0000000094
  Total charge density on r-space grids:       -0.0000007508
  Total charge density g-space grids:          -0.0000007508

  Overlap energy of the core charge distribution:               0.00000077877945
  Self energy of the core charge distribution:              -2805.30499493854950
  Core Hamiltonian energy:                                    814.58618706627203
  Hartree energy:                                            1153.00177254495702
  Exchange-correlation energy:                               -263.36637254516961

  Total energy:                                             -1101.08340709371078

 ENERGY| Total FORCE_EVAL ( QS ) energy (a.u.):            -1101.083423173483425


 *******************************************************************************
 ENSEMBLE TYPE                =                                              NVE
 STEP NUMBER                  =                                                7
 TIME [fs]                    =                                         3.500000
 CONSERVED QUANTITY [hartree] =                              -0.110076647587E+04

                                              INSTANTANEOUS             AVERAGES
 CPU TIME [s]                 =                        4.13                10.74
 ENERGY DRIFT PER ATOM [K]    =         -0.125944111161E+02  -0.109376100778E+02
 POTENTIAL ENERGY[hartree]    =         -0.110108342317E+04  -0.110107875746E+04
 KINETIC ENERGY [hartree]     =          0.316947301876E+00   0.312328605477E+00
 TEMPERATURE [K]              =                     349.333              344.242
 *******************************************************************************


 Number of electrons:                                                        512
 Number of occupied orbitals:                                                256
 Number of molecular orbitals:                                               256

 Number of orbital functions:                                               2560
 Number of independent orbital functions:                                   2560

 Extrapolation method: PS Nth order


 SCF WAVEFUNCTION OPTIMIZATION

  ----------------------------------- OT ---------------------------------------
  Minimizer      : DIIS                : direct inversion
                                         in the iterative subspace
                                         using   7 DIIS vectors
                                         safer DIIS on
  Preconditioner : FULL_KINETIC        : inversion of T + eS
  Precond_solver : DEFAULT
  stepsize       :    0.15000000                  energy_gap     :    0.20000000
  eps_taylor     :   0.10000E-15                  max_taylor     :             4
  ----------------------------------- OT ---------------------------------------

  Step     Update method      Time    Convergence         Total energy    Change
  ------------------------------------------------------------------------------
     1 OT DIIS     0.15E+00    0.6     0.00003934     -1101.0575992328 -1.10E+03
     2 OT DIIS     0.15E+00    0.6     0.00003220     -1101.0577371550 -1.38E-04
     3 OT DIIS     0.15E+00    0.6     0.00001302     -1101.0580145204 -2.77E-04
     4 OT DIIS     0.15E+00    0.6     0.00000937     -1101.0580508186 -3.63E-05

  *** SCF run converged in     4 steps ***


  Electronic density on regular grids:       -512.0000006088       -0.0000006088
  Core density on regular grids:              511.9999999927       -0.0000000073
  Total charge density on r-space grids:       -0.0000006162
  Total charge density g-space grids:          -0.0000006162

  Overlap energy of the core charge distribution:               0.00000054143075
  Self energy of the core charge distribution:              -2805.30499493854950
  Core Hamiltonian energy:                                    813.21035129810957
  Hartree energy:                                            1154.02258435861017
  Exchange-correlation energy:                               -262.98599207825089

  Total energy:                                             -1101.05805081864992

 ENERGY| Total FORCE_EVAL ( QS ) energy (a.u.):            -1101.058072635288227


 *******************************************************************************
 ENSEMBLE TYPE                =                                              NVE
 STEP NUMBER                  =                                                8
 TIME [fs]                    =                                         4.000000
 CONSERVED QUANTITY [hartree] =                              -0.110076580471E+04

                                              INSTANTANEOUS             AVERAGES
 CPU TIME [s]                 =                        4.12                 9.91
 ENERGY DRIFT PER ATOM [K]    =         -0.114905721376E+02  -0.110067303352E+02
 POTENTIAL ENERGY[hartree]    =         -0.110105807264E+04  -0.110107617186E+04
 KINETIC ENERGY [hartree]     =          0.292267929290E+00   0.309821020954E+00
 TEMPERATURE [K]              =                     322.132              341.479
 *******************************************************************************


 Number of electrons:                                                        512
 Number of occupied orbitals:                                                256
 Number of molecular orbitals:                                               256

 Number of orbital functions:                                               2560
 Number of independent orbital functions:                                   2560

 Extrapolation method: PS Nth order


 SCF WAVEFUNCTION OPTIMIZATION

  ----------------------------------- OT ---------------------------------------
  Minimizer      : DIIS                : direct inversion
                                         in the iterative subspace
                                         using   7 DIIS vectors
                                         safer DIIS on
  Preconditioner : FULL_KINETIC        : inversion of T + eS
  Precond_solver : DEFAULT
  stepsize       :    0.15000000                  energy_gap     :    0.20000000
  eps_taylor     :   0.10000E-15                  max_taylor     :             4
  ----------------------------------- OT ---------------------------------------

  Step     Update method      Time    Convergence         Total energy    Change
  ------------------------------------------------------------------------------
     1 OT DIIS     0.15E+00    0.6     0.00004063     -1101.0348903338 -1.10E+03
     2 OT DIIS     0.15E+00    0.6     0.00003307     -1101.0350368210 -1.46E-04
     3 OT DIIS     0.15E+00    0.6     0.00001525     -1101.0353096156 -2.73E-04
     4 OT DIIS     0.15E+00    0.6     0.00001093     -1101.0353590077 -4.94E-05
     5 OT DIIS     0.15E+00    0.6     0.00000786     -1101.0353880637 -2.91E-05

  *** SCF run converged in     5 steps ***


  Electronic density on regular grids:       -512.0000004818       -0.0000004818
  Core density on regular grids:              511.9999999968       -0.0000000032
  Total charge density on r-space grids:       -0.0000004851
  Total charge density g-space grids:          -0.0000004851

  Overlap energy of the core charge distribution:               0.00000043858939
  Self energy of the core charge distribution:              -2805.30499493854950
  Core Hamiltonian energy:                                    812.31303150722704
  Hartree energy:                                            1154.69416732901072
  Exchange-correlation energy:                               -262.73759239994155

  Total energy:                                             -1101.03538806366396

 ENERGY| Total FORCE_EVAL ( QS ) energy (a.u.):            -1101.035410328176795


 *******************************************************************************
 ENSEMBLE TYPE                =                                              NVE
 STEP NUMBER                  =                                                9
 TIME [fs]                    =                                         4.500000
 CONSERVED QUANTITY [hartree] =                              -0.110076529419E+04

                                              INSTANTANEOUS             AVERAGES
 CPU TIME [s]                 =                        4.78                 9.34
 ENERGY DRIFT PER ATOM [K]    =         -0.106509447317E+02  -0.109671986015E+02
 POTENTIAL ENERGY[hartree]    =         -0.110103541033E+04  -0.110107164280E+04
 KINETIC ENERGY [hartree]     =          0.270116139609E+00   0.305409367471E+00
 TEMPERATURE [K]              =                     297.717              336.616
 *******************************************************************************


 Number of electrons:                                                        512
 Number of occupied orbitals:                                                256
 Number of molecular orbitals:                                               256

 Number of orbital functions:                                               2560
 Number of independent orbital functions:                                   2560

 Extrapolation method: PS Nth order


 SCF WAVEFUNCTION OPTIMIZATION

  ----------------------------------- OT ---------------------------------------
  Minimizer      : DIIS                : direct inversion
                                         in the iterative subspace
                                         using   7 DIIS vectors
                                         safer DIIS on
  Preconditioner : FULL_KINETIC        : inversion of T + eS
  Precond_solver : DEFAULT
  stepsize       :    0.15000000                  energy_gap     :    0.20000000
  eps_taylor     :   0.10000E-15                  max_taylor     :             4
  ----------------------------------- OT ---------------------------------------

  Step     Update method      Time    Convergence         Total energy    Change
  ------------------------------------------------------------------------------
     1 OT DIIS     0.15E+00    0.6     0.00004272     -1101.0227184492 -1.10E+03
     2 OT DIIS     0.15E+00    0.6     0.00003547     -1101.0228815316 -1.63E-04
     3 OT DIIS     0.15E+00    0.6     0.00001954     -1101.0231905365 -3.09E-04
     4 OT DIIS     0.15E+00    0.6     0.00001351     -1101.0232865632 -9.60E-05
     5 OT DIIS     0.15E+00    0.6     0.00000909     -1101.0233423605 -5.58E-05

  *** SCF run converged in     5 steps ***


  Electronic density on regular grids:       -512.0000003316       -0.0000003316
  Core density on regular grids:              511.9999999981       -0.0000000019
  Total charge density on r-space grids:       -0.0000003335
  Total charge density g-space grids:          -0.0000003335

  Overlap energy of the core charge distribution:               0.00000042270338
  Self energy of the core charge distribution:              -2805.30499493854950
  Core Hamiltonian energy:                                    811.91272299860771
  Hartree energy:                                            1154.99784984069970
  Exchange-correlation energy:                               -262.62892068399140

  Total energy:                                             -1101.02334236053002

 ENERGY| Total FORCE_EVAL ( QS ) energy (a.u.):            -1101.023374985762985


 *******************************************************************************
 ENSEMBLE TYPE                =                                              NVE
 STEP NUMBER                  =                                               10
 TIME [fs]                    =                                         5.000000
 CONSERVED QUANTITY [hartree] =                              -0.110076505584E+04

                                              INSTANTANEOUS             AVERAGES
 CPU TIME [s]                 =                        4.76                 8.88
 ENERGY DRIFT PER ATOM [K]    =         -0.102589392860E+02  -0.108963726700E+02
 POTENTIAL ENERGY[hartree]    =         -0.110102337499E+04  -0.110106681602E+04
 KINETIC ENERGY [hartree]     =          0.258319147697E+00   0.300700345493E+00
 TEMPERATURE [K]              =                     284.714              331.426
 *******************************************************************************


 -------------------------------------------------------------------------------
 -                                                                             -
 -                                DBCSR STATISTICS                             -
 -                                                                             -
 -------------------------------------------------------------------------------
 COUNTER                                    TOTAL       BLAS       SMM       ACC
 flops     9 x    32 x    32            207618048       0.0%    100.0%      0.0%
 flops    22 x    32 x    32            253755392       0.0%    100.0%      0.0%
 flops    64 x    64 x    64            419954688       0.0%    100.0%      0.0%
 flops   151 x    64 x    64            640761856       0.0%    100.0%      0.0%
 flops   218 x    64 x    64            925073408       0.0%    100.0%      0.0%
 flops    64 x    96 x    64           1259864064       0.0%    100.0%      0.0%
 flops    32 x    64 x    64           1259864064       0.0%    100.0%      0.0%
 flops    64 x    64 x    96           1259864064       0.0%    100.0%      0.0%
 flops   169 x    64 x    64           1434288128       0.0%    100.0%      0.0%
 flops   209 x    64 x    64           1773764608       0.0%    100.0%      0.0%
 flops   151 x    96 x    64           1922285568       0.0%    100.0%      0.0%
 flops   151 x    64 x    96           1922285568       0.0%    100.0%      0.0%
 flops   151 x    64 x   849           1952727168       0.0%    100.0%      0.0%
 flops   151 x    64 x   853           1961927296       0.0%    100.0%      0.0%
 flops   151 x    64 x   858           1973427456       0.0%    100.0%      0.0%
 flops   218 x    96 x    64           2775220224       0.0%    100.0%      0.0%
 flops   218 x    64 x    96           2775220224       0.0%    100.0%      0.0%
 flops   218 x    64 x   849           2819169024       0.0%    100.0%      0.0%
 flops   218 x    64 x   853           2832451328       0.0%    100.0%      0.0%
 flops   218 x    64 x   858           2849054208       0.0%    100.0%      0.0%
 flops    64 x    64 x   849           2928058368       0.0%    100.0%      0.0%
 flops   231 x    64 x    64           2940715008       0.0%    100.0%      0.0%
 flops    64 x    64 x   853           2941853696       0.0%    100.0%      0.0%
 flops    64 x    64 x   858           2959097856       0.0%    100.0%      0.0%
 flops    64 x    96 x    96           3779592192       0.0%    100.0%      0.0%
 flops    32 x    96 x    64           3779592192       0.0%    100.0%      0.0%
 flops    32 x    64 x    96           3779592192       0.0%    100.0%      0.0%
 flops   169 x    64 x    96           4302864384       0.0%    100.0%      0.0%
 flops   169 x    96 x    64           4302864384       0.0%    100.0%      0.0%
 flops   169 x    64 x   849           4371005184       0.0%    100.0%      0.0%
 flops   169 x    64 x   853           4391598848       0.0%    100.0%      0.0%
 flops   169 x    64 x   858           4417340928       0.0%    100.0%      0.0%
 flops   209 x    64 x    96           5321293824       0.0%    100.0%      0.0%
 flops   209 x    96 x    64           5321293824       0.0%    100.0%      0.0%
 flops   209 x    64 x   849           5405562624       0.0%    100.0%      0.0%
 flops   209 x    64 x   853           5431030528       0.0%    100.0%      0.0%
 flops   209 x    64 x   858           5462865408       0.0%    100.0%      0.0%
 flops   151 x    96 x    96           5766856704       0.0%    100.0%      0.0%
 flops   151 x    96 x   849           5858181504       0.0%    100.0%      0.0%
 flops   151 x    96 x   853           5885781888       0.0%    100.0%      0.0%
 flops   151 x    96 x   858           5920282368       0.0%    100.0%      0.0%
 flops   218 x    96 x    96           8325660672       0.0%    100.0%      0.0%
 flops   218 x    96 x   849           8457507072       0.0%    100.0%      0.0%
 flops   218 x    96 x   853           8497353984       0.0%    100.0%      0.0%
 flops   218 x    96 x   858           8547162624       0.0%    100.0%      0.0%
 flops    64 x    96 x   849           8784175104       0.0%    100.0%      0.0%
 flops    32 x    64 x   849           8784175104       0.0%    100.0%      0.0%
 flops   231 x    96 x    64           8822145024       0.0%    100.0%      0.0%
 flops   231 x    64 x    96           8822145024       0.0%    100.0%      0.0%
 flops    64 x    96 x   853           8825561088       0.0%    100.0%      0.0%
 flops    32 x    64 x   853           8825561088       0.0%    100.0%      0.0%
 flops    64 x    96 x   858           8877293568       0.0%    100.0%      0.0%
 flops    32 x    64 x   858           8877293568       0.0%    100.0%      0.0%
 flops   231 x    64 x   849           8961853824       0.0%    100.0%      0.0%
 flops   231 x    64 x   853           9004076928       0.0%    100.0%      0.0%
 flops   231 x    64 x   858           9056855808       0.0%    100.0%      0.0%
 flops     9 x     9 x    64          11042065152       0.0%    100.0%      0.0%
 flops    32 x    96 x    96          11338776576       0.0%    100.0%      0.0%
 flops   169 x    96 x    96          12908593152       0.0%    100.0%      0.0%
 flops   169 x    96 x   849          13113015552       0.0%    100.0%      0.0%
 flops   169 x    96 x   853          13174796544       0.0%    100.0%      0.0%
 flops   169 x    96 x   858          13252022784       0.0%    100.0%      0.0%
 flops    22 x     9 x    64          13458931200       0.0%    100.0%      0.0%
 flops     9 x    22 x    64          13471375104       0.0%    100.0%      0.0%
 flops   209 x    96 x    96          15963881472       0.0%    100.0%      0.0%
 flops   209 x    96 x   849          16216687872       0.0%    100.0%      0.0%
 flops   209 x    96 x   853          16293091584       0.0%    100.0%      0.0%
 flops   209 x    96 x   858          16388596224       0.0%    100.0%      0.0%
 flops    22 x    22 x    64          16751820800       0.0%    100.0%      0.0%
 flops    32 x    96 x   849          26352525312       0.0%    100.0%      0.0%
 flops   231 x    96 x    96          26466435072       0.0%    100.0%      0.0%
 flops    32 x    96 x   853          26476683264       0.0%    100.0%      0.0%
 flops    32 x    96 x   858          26631880704       0.0%    100.0%      0.0%
 flops   231 x    96 x   849          26885561472       0.0%    100.0%      0.0%
 flops   231 x    96 x   853          27012230784       0.0%    100.0%      0.0%
 flops   231 x    96 x   858          27170567424       0.0%    100.0%      0.0%
 flops     9 x     9 x    96          33126195456       0.0%    100.0%      0.0%
 flops    22 x     9 x    96          40376793600       0.0%    100.0%      0.0%
 flops     9 x    22 x    96          40414125312       0.0%    100.0%      0.0%
 flops    22 x    22 x    96          50255462400       0.0%    100.0%      0.0%
 flops     9 x    32 x     9         185405884416       0.0%    100.0%      0.0%
 flops    22 x    32 x     9         227871249408       0.0%    100.0%      0.0%
 flops     9 x    32 x    22         227871249408       0.0%    100.0%      0.0%
 flops    22 x    32 x    22         279130931200       0.0%    100.0%      0.0%
 flops inhomo. stacks                173042472960     100.0%      0.0%      0.0%
 flops total                         1.887819E+12       9.2%     90.8%      0.0%
 flops max/rank                    235.818422E+09       9.4%     90.6%      0.0%
 matmuls inhomo. stacks                     17199     100.0%      0.0%      0.0%
 matmuls total                           88097445       0.0%    100.0%      0.0%
 number of processed stacks                341609       5.0%     95.0%      0.0%
 average stack size                                     1.0     271.5       0.0
 marketing flops                     2.107629E+12
 -------------------------------------------------------------------------------
 # multiplications                           2286
 max memory usage/rank             520.122368E+06
 # max total images/rank                        1
 # max 3D layers                                1
 # MPI messages exchanged                   82296
 MPI messages size (bytes):
  total size                        64.694968E+09
  min size                           0.000000E+00
  max size                           5.889312E+06
  average size                     786.125312E+03
 MPI breakdown and total messages size (bytes):
             size <=      128                 528                        0
       128 < size <=     8192                   0                        0
      8192 < size <=    32768                4306                140378112
     32768 < size <=   131072               33920               2084044800
    131072 < size <=  4194304               36450              21233664000
   4194304 < size <= 16777216                7092              41236782976
  16777216 < size                               0                        0
 -------------------------------------------------------------------------------
 -                                                                             -
 -                      DBCSR MESSAGE PASSING PERFORMANCE                      -
 -                                                                             -
 -------------------------------------------------------------------------------
 ROUTINE             CALLS      AVE VOLUME [Bytes]
 MP_Group              154
 MP_Bcast               85                     12.
 MP_Allreduce        12320                     16.
 MP_Alltoall          8655                 130097.
 MP_Wait             91440
 MP_ISend            27388                 278862.
 MP_IRecv            27388                 271299.
 MP_Memory           87306
 -------------------------------------------------------------------------------
 
 MEMORY| Estimated peak process memory [MiB]                                 472

 -------------------------------------------------------------------------------
 -                                                                             -
 -                         MESSAGE PASSING PERFORMANCE                         -
 -                                                                             -
 -------------------------------------------------------------------------------

 ROUTINE             CALLS      AVE VOLUME [Bytes]
 MP_Group                4
 MP_Bcast             3672                  62783.
 MP_Allreduce         9915                    445.
 MP_Sync                54
 MP_Alltoall          1593                6483175.
 MP_ISendRecv         5712                 167000.
 MP_Wait              9872
 MP_comm_split          50
 MP_ISend             3380                 467462.
 MP_IRecv             3380                 467462.
 -------------------------------------------------------------------------------


 -------------------------------------------------------------------------------
 -                                                                             -
 -                           R E F E R E N C E S                               -
 -                                                                             -
 -------------------------------------------------------------------------------
 
 CP2K version 7.1, the CP2K developers group (2019).
 CP2K is freely available from https://www.cp2k.org/ .

 Schuett, Ole; Messmer, Peter; Hutter, Juerg; VandeVondele, Joost. 
 Electronic Structure Calculations on Graphics Processing Units, John
 Wiley & Sons, Ltd, 173-190 (2016). 
 GPU-Accelerated Sparse Matrix-Matrix Multiplication for
 Linear Scaling Density Functional Theory.
 https://dx.doi.org/10.1002/9781118670712.ch8

 Borstnik, U; VandeVondele, J; Weber, V; Hutter, J. 
 PARALLEL COMPUTING, 40 (5-6), 47-58 (2014). 
 Sparse matrix multiplication: The distributed block-compressed sparse
 row library.
 https://dx.doi.org/10.1016/j.parco.2014.03.012

 Hutter, J; Iannuzzi, M; Schiffmann, F; VandeVondele, J. 
 WIREs Comput Mol Sci., 4 (1), 15-25 (2014). 
 CP2K: atomistic simulations of condensed matter systems.
 https://dx.doi.org/10.1002/wcms.1159

 Marek, A; Blum, V; Johanni, R; Havu, V; Lang, B; Auckenthaler, T;
 Heinecke, A; Bungartz, H; Lederer, H. 
 Journal of Physics: Condensed Matter, 26 (21), (2014). 
 The ELPA library: scalable parallel eigenvalue solutions for
 electronic structure
 theory and computational science.
 https://dx.doi.org/10.1088/0953-8984/26/21/213201

 Krack, M. 
 THEORETICAL CHEMISTRY ACCOUNTS, 114 (1-3), 145-152 (2005). 
 Pseudopotentials for H to Kr optimized for gradient-corrected
 exchange-correlation functionals.
 https://dx.doi.org/10.1007/s00214-005-0655-y

 VandeVondele, J; Krack, M; Mohamed, F; Parrinello, M; Chassaing, T;
 Hutter, J. COMPUTER PHYSICS COMMUNICATIONS, 167 (2), 103-128 (2005). 
 QUICKSTEP: Fast and accurate density functional calculations using a
 mixed Gaussian and plane waves approach.
 https://dx.doi.org/10.1016/j.cpc.2004.12.014

 Frigo, M; Johnson, SG. 
 PROCEEDINGS OF THE IEEE, 93 (2), 216-231 (2005). 
 The design and implementation of FFTW3.
 https://dx.doi.org/10.1109/JPROC.2004.840301

 VandeVondele, J; Hutter, J. 
 JOURNAL OF CHEMICAL PHYSICS, 118 (10), 4365-4369 (2003). 
 An efficient orbital transformation method for electronic structure
 calculations.
 https://dx.doi.org/10.1063/1.1543154

 Hartwigsen, C; Goedecker, S; Hutter, J. 
 PHYSICAL REVIEW B, 58 (7), 3641-3662 (1998). 
 Relativistic separable dual-space Gaussian pseudopotentials from H to Rn.
 https://dx.doi.org/10.1103/PhysRevB.58.3641

 Lippert, G; Hutter, J; Parrinello, M. 
 MOLECULAR PHYSICS, 92 (3), 477-487 (1997). 
 A hybrid Gaussian and plane wave density functional scheme.
 https://dx.doi.org/10.1080/002689797170220

 Goedecker, S; Teter, M; Hutter, J. 
 PHYSICAL REVIEW B, 54 (3), 1703-1710 (1996). 
 Separable dual-space Gaussian pseudopotentials.
 https://dx.doi.org/10.1103/PhysRevB.54.1703


 -------------------------------------------------------------------------------
 -                                                                             -
 -                                T I M I N G                                  -
 -                                                                             -
 -------------------------------------------------------------------------------
 SUBROUTINE                       CALLS  ASD         SELF TIME        TOTAL TIME
                                MAXIMUM       AVERAGE  MAXIMUM  AVERAGE  MAXIMUM
 CP2K                                 1  1.0    0.335    0.337   89.821   89.822
 qs_mol_dyn_low                       1  2.0    0.003    0.003   89.036   89.071
 qs_forces                           11  3.9    0.002    0.002   88.736   88.736
 qs_energies                         11  4.9    0.002    0.002   82.438   82.461
 scf_env_do_scf                      11  5.9    0.015    0.015   74.304   74.306
 scf_env_do_scf_inner_loop          108  6.5    0.004    0.008   68.388   68.389
 velocity_verlet                     10  3.0    0.001    0.001   52.883   52.891
 rebuild_ks_matrix                  119  8.3    0.001    0.001   33.249   33.389
 qs_ks_build_kohn_sham_matrix       119  9.3    0.012    0.014   33.249   33.389
 qs_rho_update_rho                  119  7.7    0.001    0.001   32.965   33.056
 calculate_rho_elec                 119  8.7   16.743   27.076   32.964   33.055
 qs_ks_update_qs_env                119  7.6    0.001    0.001   29.418   29.547
 sum_up_and_integrate               119 10.3    0.172    0.234   28.249   28.290
 integrate_v_rspace                 119 11.3   14.526   23.310   28.077   28.133
 density_rs2pw                      119  9.7    0.005    0.005   14.591   16.215
 rs_pw_transfer                     974 11.9    0.006    0.008   14.221   15.901
 dbcsr_multiply_generic            2286 12.5    0.110    0.145   14.001   14.459
 rs_pw_transfer_RS2PW_140           130 11.5    0.331    0.479   11.771   13.498
 mp_waitany                        3380 13.7   11.605   13.313   11.605   13.313
 qs_scf_new_mos                     108  7.5    0.001    0.001   12.065   12.247
 qs_scf_loop_do_ot                  108  8.5    0.001    0.001   12.064   12.246
 rs_distribute_matrix               249 10.9    0.310    0.384   10.302   11.739
 mp_alltoall_d11v                  2141 13.8    9.847   11.160    9.847   11.160
 ot_scf_mini                        108  9.5    0.002    0.003   10.424   10.609
 multiply_cannon                   2286 13.5    0.264    0.344    7.659    8.109
 multiply_cannon_multrec           6858 14.5    5.166    6.187    5.178    6.202
 ot_mini                            108 10.5    0.001    0.001    5.951    6.151
 init_scf_loop                       11  6.9    0.000    0.000    5.875    5.877
 pw_transfer                       1439 11.6    0.083    0.099    5.476    5.670
 fft_wrap_pw1pw2                   1201 12.6    0.007    0.009    5.320    5.466
 fft_wrap_pw1pw2_140                487 13.2    0.457    0.587    4.414    4.925
 init_scf_run                        11  5.9    0.000    0.001    4.914    4.914
 scf_env_initial_rho_setup           11  6.9    0.001    0.001    4.913    4.914
 fft3d_ps                          1201 14.6    2.330    2.970    4.280    4.506
 make_m2s                          4572 13.5    0.070    0.097    3.995    4.158
 qs_ks_update_qs_env_forces          11  4.9    0.000    0.000    4.035    4.049
 wfi_extrapolate                     11  7.9    0.001    0.001    3.975    3.975
 qs_ot_get_derivative               108 11.5    0.001    0.001    3.447    3.633
 potential_pw2rs                    119 12.3    0.033    0.051    3.465    3.494
 make_images                       4572 14.5    0.479    0.621    3.114    3.219
 mp_waitall_1                     97932 16.2    2.199    3.150    2.199    3.150
 qs_energies_init_hamiltonians       11  5.9    0.000    0.000    2.880    2.880
 prepare_preconditioner              11  7.9    0.000    0.000    2.527    2.548
 make_preconditioner                 11  8.9    0.000    0.000    2.527    2.548
 ot_diis_step                       108 11.5    0.004    0.005    2.481    2.482
 apply_preconditioner_dbcsr         119 12.6    0.000    0.000    2.255    2.449
 apply_single                       119 13.6    0.000    0.000    2.255    2.449
 make_full_inverse_cholesky          11  9.9    0.000    0.000    2.320    2.349
 build_core_hamiltonian_matrix_      11  4.9    0.000    0.001    1.325    2.214
 mp_sum_d                          4125 12.0    1.762    2.139    1.762    2.139
 qs_env_update_s_mstruct             11  6.9    0.000    0.000    2.068    2.128
 mp_alltoall_z22v                  1201 16.6    1.690    2.086    1.690    2.086
 calculate_dm_sparse                119  9.5    0.001    0.001    1.843    2.075
 qs_ot_get_p                        119 10.4    0.002    0.002    1.844    2.057
 dbcsr_finalize                    5792 13.6    0.050    0.058    1.487    1.881
 -------------------------------------------------------------------------------

 The number of warnings for this run is : 1
 
 -------------------------------------------------------------------------------
  **** **** ******  **  PROGRAM ENDED AT                 2023-07-24 10:58:57.626
 ***** ** ***  *** **   PROGRAM RAN ON                                   r1i4n17
 **    ****   ******    PROGRAM RAN BY                             mrnuff-cirrus
 ***** **    ** ** **   PROGRAM PROCESS ID                               3268138
  **** **  *******  **  PROGRAM STOPPED IN /mnt/lustre/indy2lfs/work/tc047/tc047
                                           /mrnuff-cirrus/cp2k
 DBCSR| CPU Multiplication driver                                           XSMM
 DBCSR| Multrec recursion limit                                              512
 DBCSR| Multiplication stack size                                           1000
 DBCSR| Maximum elements for images                                    UNLIMITED
 DBCSR| Multiplicative factor virtual images                                   1
 DBCSR| Use multiplication densification                                       T
 DBCSR| Multiplication size stacks                                             3
 DBCSR| Number of 3D layers                                               SINGLE
 DBCSR| Use MPI memory allocation                                              T
 DBCSR| Use RMA algorithm                                                      F
 DBCSR| Use Communication thread                                               T
 DBCSR| Communication thread load                                             75


  **** **** ******  **  PROGRAM STARTED AT               2023-07-24 11:00:09.332
 ***** ** ***  *** **   PROGRAM STARTED ON                               r1i4n17
 **    ****   ******    PROGRAM STARTED BY                         mrnuff-cirrus
 ***** **    ** ** **   PROGRAM PROCESS ID                               3268398
  **** **  *******  **  PROGRAM STARTED IN /mnt/lustre/indy2lfs/work/tc047/tc047
                                           /mrnuff-cirrus/cp2k

 CP2K| version string:                                          CP2K version 7.1
 CP2K| source code revision number:                                  git:e635599
 CP2K| cp2kflags: omp libint fftw3 libxc elpa parallel mpi3 scalapack xsmm max_c
 CP2K|            ontr=4 plumed2 spglib mkl
 CP2K| is freely available from                            https://www.cp2k.org/
 CP2K| Program compiled at                          Thu Jun 30 12:29:55 BST 2022
 CP2K| Program compiled on                                         cirrus-login3
 CP2K| Program compiled for                                         Cirrus-intel
 CP2K| Data directory path       /mnt/lustre/indy2lfs/sw/cp2k/7.1/cp2k/cp2k/data
 CP2K| Input file name                                  benchmarks/QS/H2O-64.inp
 
 GLOBAL| Force Environment number                                              1
 GLOBAL| Basis set file name                                      GTH_BASIS_SETS
 GLOBAL| Potential file name                                           POTENTIAL
 GLOBAL| MM Potential file name                                     MM_POTENTIAL
 GLOBAL| Coordinate file name                                      __STD_INPUT__
 GLOBAL| Method name                                                        CP2K
 GLOBAL| Project name                                                     H2O-64
 GLOBAL| Preferred FFT library                                             FFTW3
 GLOBAL| Preferred diagonalization lib.                                     ELPA
 GLOBAL| Run type                                                             MD
 GLOBAL| All-to-all communication in single precision                          F
 GLOBAL| FFTs using library dependent lengths                                  F
 GLOBAL| Global print level                                                  LOW
 GLOBAL| MPI I/O enabled                                                       T
 GLOBAL| Total number of message passing processes                            18
 GLOBAL| Number of threads for this process                                    4
 GLOBAL| This output is from process                                           0
 GLOBAL| CPU model name                Intel(R) Xeon(R) CPU E5-2695 v4 @ 2.10GHz
 GLOBAL| CPUID                                                              1002
 GLOBAL| Compiled for CPUID                                                    0

 MEMORY| system memory details [Kb]
 MEMORY|                        rank 0           min           max       average
 MEMORY| MemTotal            263585924     263585924     263585924     263585924
 MEMORY| MemFree             258168124     258168124     258168628     258168600
 MEMORY| Buffers                    64            64            64            64
 MEMORY| Cached                 348152        348152        348152        348152
 MEMORY| Slab                  1665480       1665480       1665480       1665480
 MEMORY| SReclaimable           139024        139024        139024        139024
 MEMORY| MemLikelyFree       258655364     258655364     258655868     258655840

 
 GENERATE|  Preliminary Number of Bonds generated:                             0
 GENERATE|  Achieved consistency in connectivity generation.

 *******************************************************************************
 *******************************************************************************
 **                                                                           **
 **     #####                         ##              ##                      **
 **    ##   ##            ##          ##              ##                      **
 **   ##     ##                       ##            ######                    **
 **   ##     ##  ##   ##  ##   #####  ##  ##   ####   ##    #####    #####    **
 **   ##     ##  ##   ##  ##  ##      ## ##   ##      ##   ##   ##  ##   ##   **
 **   ##  ## ##  ##   ##  ##  ##      ####     ###    ##   ######   ######    **
 **    ##  ###   ##   ##  ##  ##      ## ##      ##   ##   ##       ##        **
 **     #######   #####   ##   #####  ##  ##  ####    ##    #####   ##        **
 **           ##                                                    ##        **
 **                                                                           **
 **                                                ... make the atoms dance   **
 **                                                                           **
 **            Copyright (C) by CP2K developers group (2000 - 2019)           **
 **                                                                           **
 *******************************************************************************


 TOTAL NUMBERS AND MAXIMUM NUMBERS

  Total number of            - Atomic kinds:                                   2
                             - Atoms:                                        192
[...]
 flops   178 x    32 x    32           3021340672       0.0%    100.0%      0.0%
 flops   178 x    32 x    64           3021340672       0.0%    100.0%      0.0%
 flops   178 x    64 x    32           3021340672       0.0%    100.0%      0.0%
 flops   178 x    64 x    64           3021340672       0.0%    100.0%      0.0%
 flops   187 x    32 x    32           3174105088       0.0%    100.0%      0.0%
 flops   187 x    32 x    64           3174105088       0.0%    100.0%      0.0%
 flops   187 x    64 x    32           3174105088       0.0%    100.0%      0.0%
 flops   187 x    64 x    64           3174105088       0.0%    100.0%      0.0%
 flops   209 x    32 x    32           3547529216       0.0%    100.0%      0.0%
 flops   209 x    32 x    64           3547529216       0.0%    100.0%      0.0%
 flops   209 x    64 x    32           3547529216       0.0%    100.0%      0.0%
 flops   209 x    64 x    64           3547529216       0.0%    100.0%      0.0%
 flops   142 x    64 x   418           3616442368       0.0%    100.0%      0.0%
 flops   142 x    32 x   418           3616442368       0.0%    100.0%      0.0%
 flops   218 x    64 x    64           3700293632       0.0%    100.0%      0.0%
 flops   218 x    64 x    32           3700293632       0.0%    100.0%      0.0%
 flops   218 x    32 x    32           3700293632       0.0%    100.0%      0.0%
 flops   218 x    32 x    64           3700293632       0.0%    100.0%      0.0%
 flops   222 x    32 x    32           3768188928       0.0%    100.0%      0.0%
 flops   222 x    32 x    64           3768188928       0.0%    100.0%      0.0%
 flops   222 x    64 x    32           3768188928       0.0%    100.0%      0.0%
 flops   222 x    64 x    64           3768188928       0.0%    100.0%      0.0%
 flops   231 x    32 x    32           3920953344       0.0%    100.0%      0.0%
 flops   231 x    32 x    64           3920953344       0.0%    100.0%      0.0%
 flops   231 x    64 x    32           3920953344       0.0%    100.0%      0.0%
 flops   231 x    64 x    64           3920953344       0.0%    100.0%      0.0%
 flops   249 x    64 x    64           4226482176       0.0%    100.0%      0.0%
 flops   249 x    64 x    32           4226482176       0.0%    100.0%      0.0%
 flops   249 x    32 x    32           4226482176       0.0%    100.0%      0.0%
 flops   249 x    32 x    64           4226482176       0.0%    100.0%      0.0%
 flops   169 x    32 x   418           4304075776       0.0%    100.0%      0.0%
 flops   169 x    64 x   418           4304075776       0.0%    100.0%      0.0%
 flops   178 x    32 x   418           4533286912       0.0%    100.0%      0.0%
 flops   178 x    64 x   418           4533286912       0.0%    100.0%      0.0%
 flops   187 x    32 x   418           4762498048       0.0%    100.0%      0.0%
 flops   187 x    64 x   418           4762498048       0.0%    100.0%      0.0%
 flops    32 x    64 x    64           5039456256       0.0%    100.0%      0.0%
 flops    32 x    64 x    32           5039456256       0.0%    100.0%      0.0%
 flops    32 x    32 x    32           5039456256       0.0%    100.0%      0.0%
 flops    32 x    32 x    64           5039456256       0.0%    100.0%      0.0%
 flops   209 x    32 x   418           5322791936       0.0%    100.0%      0.0%
 flops   209 x    64 x   418           5322791936       0.0%    100.0%      0.0%
 flops   218 x    64 x   418           5552003072       0.0%    100.0%      0.0%
 flops   218 x    32 x   418           5552003072       0.0%    100.0%      0.0%
 flops   222 x    32 x   418           5653874688       0.0%    100.0%      0.0%
 flops   222 x    64 x   418           5653874688       0.0%    100.0%      0.0%
 flops    64 x    64 x   418           5766447104       0.0%    100.0%      0.0%
 flops    64 x    32 x   418           5766447104       0.0%    100.0%      0.0%
 flops   231 x    32 x   418           5883085824       0.0%    100.0%      0.0%
 flops   231 x    64 x   418           5883085824       0.0%    100.0%      0.0%
 flops   249 x    64 x   418           6341508096       0.0%    100.0%      0.0%
 flops   249 x    32 x   418           6341508096       0.0%    100.0%      0.0%
 flops   142 x    64 x   431           7457830912       0.0%    100.0%      0.0%
 flops   142 x    32 x   431           7457830912       0.0%    100.0%      0.0%
 flops   169 x    32 x   431           8875869184       0.0%    100.0%      0.0%
 flops   169 x    64 x   431           8875869184       0.0%    100.0%      0.0%
 flops   178 x    32 x   431           9348548608       0.0%    100.0%      0.0%
 flops   178 x    64 x   431           9348548608       0.0%    100.0%      0.0%
 flops   187 x    32 x   431           9821228032       0.0%    100.0%      0.0%
 flops   187 x    64 x   431           9821228032       0.0%    100.0%      0.0%
 flops   209 x    32 x   431          10976666624       0.0%    100.0%      0.0%
 flops   209 x    64 x   431          10976666624       0.0%    100.0%      0.0%
 flops   218 x    64 x   431          11449346048       0.0%    100.0%      0.0%
 flops   218 x    32 x   431          11449346048       0.0%    100.0%      0.0%
 flops   222 x    32 x   431          11659425792       0.0%    100.0%      0.0%
 flops   222 x    64 x   431          11659425792       0.0%    100.0%      0.0%
 flops    64 x    64 x   431          11891572736       0.0%    100.0%      0.0%
 flops    64 x    32 x   431          11891572736       0.0%    100.0%      0.0%
 flops   231 x    32 x   431          12132105216       0.0%    100.0%      0.0%
 flops   231 x    64 x   431          12132105216       0.0%    100.0%      0.0%
 flops   249 x    64 x   431          13077464064       0.0%    100.0%      0.0%
 flops   249 x    32 x   431          13077464064       0.0%    100.0%      0.0%
 flops    32 x    64 x   418          17299341312       0.0%    100.0%      0.0%
 flops    32 x    32 x   418          17299341312       0.0%    100.0%      0.0%
 flops     9 x     9 x    64          22084130304       0.0%    100.0%      0.0%
 flops     9 x     9 x    32          22084130304       0.0%    100.0%      0.0%
 flops    22 x     9 x    64          26917862400       0.0%    100.0%      0.0%
 flops    22 x     9 x    32          26917862400       0.0%    100.0%      0.0%
 flops     9 x    22 x    64          26942750208       0.0%    100.0%      0.0%
 flops     9 x    22 x    32          26942750208       0.0%    100.0%      0.0%
 flops    22 x    22 x    64          33503641600       0.0%    100.0%      0.0%
 flops    22 x    22 x    32          33503641600       0.0%    100.0%      0.0%
 flops    32 x    64 x   431          35674718208       0.0%    100.0%      0.0%
 flops    32 x    32 x   431          35674718208       0.0%    100.0%      0.0%
 flops     9 x    32 x     9         185405884416       0.0%    100.0%      0.0%
 flops    22 x    32 x     9         227871249408       0.0%    100.0%      0.0%
 flops     9 x    32 x    22         227871249408       0.0%    100.0%      0.0%
 flops    22 x    32 x    22         279130931200       0.0%    100.0%      0.0%
 flops inhomo. stacks                195849077760     100.0%      0.0%      0.0%
 flops total                         1.907715E+12      10.3%     89.7%      0.0%
 flops max/rank                    157.211891E+09      10.8%     89.2%      0.0%
 matmuls inhomo. stacks                     68796     100.0%      0.0%      0.0%
 matmuls total                           95728806       0.1%     99.9%      0.0%
 number of processed stacks               1284552       5.4%     94.6%      0.0%
 average stack size                                     1.0      78.7       0.0
 marketing flops                     2.107629E+12
 -------------------------------------------------------------------------------
 # multiplications                           2286
 max memory usage/rank             356.020224E+06
 # max total images/rank                        2
 # max 3D layers                                1
 # MPI messages exchanged                  370332
 MPI messages size (bytes):
  total size                       144.796058E+09
  min size                           0.000000E+00
  max size                           2.972176E+06
  average size                     390.989875E+03
 MPI breakdown and total messages size (bytes):
             size <=      128                2442                        0
       128 < size <=     8192               42296                346488832
      8192 < size <=    32768              108874               2350383104
     32768 < size <=   131072               61380               5741936640
    131072 < size <=  4194304              155340             136358031040
   4194304 < size <= 16777216                   0                        0
  16777216 < size                               0                        0
 -------------------------------------------------------------------------------

 *** WARNING in dbcsr_mm.F:295 :: Using a non-square number of MPI ranks ***
 *** might lead to poor performance. Used ranks: 18 Suggested: 16 36     ***

 -------------------------------------------------------------------------------
 -                                                                             -
 -                      DBCSR MESSAGE PASSING PERFORMANCE                      -
 -                                                                             -
 -------------------------------------------------------------------------------
 ROUTINE             CALLS      AVE VOLUME [Bytes]
 MP_Group              154
 MP_Bcast              103                     12.
 MP_Allreduce        12356                     16.
 MP_Alltoall          8655                  71949.
 MP_Wait            118872
 MP_ISend            52632                 179881.
 MP_IRecv            52632                 173698.
 MP_Memory          113346
 -------------------------------------------------------------------------------
 
 MEMORY| Estimated peak process memory [MiB]                                 335

 -------------------------------------------------------------------------------
 -                                                                             -
 -                         MESSAGE PASSING PERFORMANCE                         -
 -                                                                             -
 -------------------------------------------------------------------------------

 ROUTINE             CALLS      AVE VOLUME [Bytes]
 MP_Group                4
 MP_Bcast             3622                  63622.
 MP_Allreduce         9765                    408.
 MP_Sync                 4
 MP_Alltoall          1593                3229411.
 MP_ISendRecv        12138                  94533.
 MP_Wait             18638
 MP_ISend             5720                 201932.
 MP_IRecv             5720                 201932.
 -------------------------------------------------------------------------------


 -------------------------------------------------------------------------------
 -                                                                             -
 -                           R E F E R E N C E S                               -
 -                                                                             -
 -------------------------------------------------------------------------------
 
 CP2K version 7.1, the CP2K developers group (2019).
 CP2K is freely available from https://www.cp2k.org/ .

 Schuett, Ole; Messmer, Peter; Hutter, Juerg; VandeVondele, Joost. 
 Electronic Structure Calculations on Graphics Processing Units, John
 Wiley & Sons, Ltd, 173-190 (2016). 
 GPU-Accelerated Sparse Matrix-Matrix Multiplication for
 Linear Scaling Density Functional Theory.
 https://dx.doi.org/10.1002/9781118670712.ch8

 Borstnik, U; VandeVondele, J; Weber, V; Hutter, J. 
 PARALLEL COMPUTING, 40 (5-6), 47-58 (2014). 
 Sparse matrix multiplication: The distributed block-compressed sparse
 row library.
 https://dx.doi.org/10.1016/j.parco.2014.03.012

 Hutter, J; Iannuzzi, M; Schiffmann, F; VandeVondele, J. 
 WIREs Comput Mol Sci., 4 (1), 15-25 (2014). 
 CP2K: atomistic simulations of condensed matter systems.
 https://dx.doi.org/10.1002/wcms.1159

 Marek, A; Blum, V; Johanni, R; Havu, V; Lang, B; Auckenthaler, T;
 Heinecke, A; Bungartz, H; Lederer, H. 
 Journal of Physics: Condensed Matter, 26 (21), (2014). 
 The ELPA library: scalable parallel eigenvalue solutions for
 electronic structure
 theory and computational science.
 https://dx.doi.org/10.1088/0953-8984/26/21/213201

 Krack, M. 
 THEORETICAL CHEMISTRY ACCOUNTS, 114 (1-3), 145-152 (2005). 
 Pseudopotentials for H to Kr optimized for gradient-corrected
 exchange-correlation functionals.
 https://dx.doi.org/10.1007/s00214-005-0655-y

 VandeVondele, J; Krack, M; Mohamed, F; Parrinello, M; Chassaing, T;
 Hutter, J. COMPUTER PHYSICS COMMUNICATIONS, 167 (2), 103-128 (2005). 
 QUICKSTEP: Fast and accurate density functional calculations using a
 mixed Gaussian and plane waves approach.
 https://dx.doi.org/10.1016/j.cpc.2004.12.014

 Frigo, M; Johnson, SG. 
 PROCEEDINGS OF THE IEEE, 93 (2), 216-231 (2005). 
 The design and implementation of FFTW3.
 https://dx.doi.org/10.1109/JPROC.2004.840301

 VandeVondele, J; Hutter, J. 
 JOURNAL OF CHEMICAL PHYSICS, 118 (10), 4365-4369 (2003). 
 An efficient orbital transformation method for electronic structure
 calculations.
 https://dx.doi.org/10.1063/1.1543154

 Hartwigsen, C; Goedecker, S; Hutter, J. 
 PHYSICAL REVIEW B, 58 (7), 3641-3662 (1998). 
 Relativistic separable dual-space Gaussian pseudopotentials from H to Rn.
 https://dx.doi.org/10.1103/PhysRevB.58.3641

 Lippert, G; Hutter, J; Parrinello, M. 
 MOLECULAR PHYSICS, 92 (3), 477-487 (1997). 
 A hybrid Gaussian and plane wave density functional scheme.
 https://dx.doi.org/10.1080/002689797170220

 Goedecker, S; Teter, M; Hutter, J. 
 PHYSICAL REVIEW B, 54 (3), 1703-1710 (1996). 
 Separable dual-space Gaussian pseudopotentials.
 https://dx.doi.org/10.1103/PhysRevB.54.1703


 -------------------------------------------------------------------------------
 -                                                                             -
 -                                T I M I N G                                  -
 -                                                                             -
 -------------------------------------------------------------------------------
 SUBROUTINE                       CALLS  ASD         SELF TIME        TOTAL TIME
                                MAXIMUM       AVERAGE  MAXIMUM  AVERAGE  MAXIMUM
 CP2K                                 1  1.0    0.230    0.232   63.960   63.960
 qs_mol_dyn_low                       1  2.0    0.004    0.005   63.178   63.234
 qs_forces                           11  3.9    0.002    0.003   62.956   62.956
 qs_energies                         11  4.9    0.002    0.002   59.233   59.239
 scf_env_do_scf                      11  5.9    0.021    0.021   53.851   53.856
 scf_env_do_scf_inner_loop          108  6.5    0.005    0.010   49.530   49.531
 velocity_verlet                     10  3.0    0.002    0.002   37.337   37.342
 rebuild_ks_matrix                  119  8.3    0.001    0.001   21.157   21.321
 qs_ks_build_kohn_sham_matrix       119  9.3    0.016    0.018   21.156   21.321
 qs_rho_update_rho                  119  7.7    0.001    0.001   20.818   20.852
 calculate_rho_elec                 119  8.7   15.769   16.257   20.817   20.851
 qs_ks_update_qs_env                119  7.6    0.002    0.002   18.808   18.952
 sum_up_and_integrate               119 10.3    0.135    0.140   16.797   16.824
 integrate_v_rspace                 119 11.3   11.840   12.145   16.662   16.692
 dbcsr_multiply_generic            2286 12.5    0.154    0.167   15.803   15.999
 qs_scf_new_mos                     108  7.5    0.001    0.001   13.734   13.927
 qs_scf_loop_do_ot                  108  8.5    0.001    0.001   13.733   13.927
 ot_scf_mini                        108  9.5    0.003    0.003   12.445   12.590
 multiply_cannon                   2286 13.5    0.442    0.492    9.452   10.079
 multiply_cannon_multrec          13716 14.5    5.784    7.546    5.798    7.561
 ot_mini                            108 10.5    0.001    0.001    7.353    7.512
 rs_pw_transfer                     974 11.9    0.009    0.011    4.308    4.834
 qs_ot_get_derivative               108 11.5    0.001    0.001    4.443    4.592
 init_scf_loop                       11  6.9    0.000    0.000    4.278    4.280
 density_rs2pw                      119  9.7    0.006    0.007    3.766    4.263
 mp_waitall_1                    131790 16.0    2.708    4.246    2.708    4.246
 make_m2s                          4572 13.5    0.115    0.121    3.904    4.034
 pw_transfer                       1439 11.6    0.112    0.124    3.850    3.892
 fft_wrap_pw1pw2                   1201 12.6    0.009    0.010    3.661    3.710
 init_scf_run                        11  5.9    0.001    0.001    3.528    3.530
 scf_env_initial_rho_setup           11  6.9    0.001    0.001    3.527    3.530
 potential_pw2rs                    119 12.3    0.030    0.034    3.429    3.439
 fft_wrap_pw1pw2_140                487 13.2    0.374    0.393    3.186    3.256
 make_images                       4572 14.5    0.492    0.564    2.939    3.041
 wfi_extrapolate                     11  7.9    0.001    0.001    3.038    3.038
 ot_diis_step                       108 11.5    0.005    0.006    2.883    2.883
 apply_preconditioner_dbcsr         119 12.6    0.000    0.000    2.717    2.856
 apply_single                       119 13.6    0.000    0.001    2.716    2.856
 fft3d_ps                          1201 14.6    1.805    1.871    2.760    2.791
 multiply_cannon_metrocomm3       13716 14.5    0.058    0.061    1.208    2.741
 qs_ks_update_qs_env_forces          11  4.9    0.000    0.000    2.508    2.525
 qs_ot_get_p                        119 10.4    0.002    0.002    2.041    2.231
 multiply_cannon_metrocomm4       11430 14.5    0.059    0.067    0.800    2.223
 mp_irecv_dv                      33520 15.5    0.694    2.126    0.694    2.126
 prepare_preconditioner              11  7.9    0.000    0.000    2.034    2.054
 make_preconditioner                 11  8.9    0.000    0.000    2.034    2.054
 make_full_inverse_cholesky          11  9.9    0.000    0.000    1.876    1.904
 rs_distribute_matrix               249 10.9    0.297    0.340    1.393    1.701
 qs_ot_get_derivative_diag           49 12.0    0.001    0.002    1.542    1.618
 rs_pw_transfer_RS2PW_140           130 11.5    0.419    0.447    1.105    1.590
 qs_energies_init_hamiltonians       11  5.9    0.000    0.000    1.556    1.557
 dbcsr_finalize                    5792 13.6    0.060    0.066    1.263    1.529
 calculate_dm_sparse                119  9.5    0.001    0.001    1.453    1.517
 qs_ot_get_derivative_taylor         59 13.0    0.002    0.002    1.409    1.487
 mp_waitany                        5720 13.7    0.942    1.483    0.942    1.483
 mp_sum_l                         10909 13.6    0.916    1.406    0.916    1.406
 dbcsr_merge_all                   5178 14.8    0.757    0.976    1.133    1.399
 -------------------------------------------------------------------------------

 The number of warnings for this run is : 2
 
 -------------------------------------------------------------------------------
  **** **** ******  **  PROGRAM ENDED AT                 2023-07-24 11:01:14.026
 ***** ** ***  *** **   PROGRAM RAN ON                                   r1i4n17
 **    ****   ******    PROGRAM RAN BY                             mrnuff-cirrus
 ***** **    ** ** **   PROGRAM PROCESS ID                               3268398
  **** **  *******  **  PROGRAM STOPPED IN /mnt/lustre/indy2lfs/work/tc047/tc047
                                           /mrnuff-cirrus/cp2k
