#     Step Nr.          Time[fs]        Kin.[a.u.]          Temp[K]            Pot.[a.u.]        Cons Qty[a.u.]        UsedTime[s]
         0            0.000000        39.900448259       300.000000000    -12704.580765676    -12664.671840920         0.000000000
       769         1538.000000        31.483795720       236.717609158    -12697.695833134    -12664.739156994         0.300248022
       285          570.000000        28.464524283       214.016575192    -12695.082295336    -12664.736823029         0.869561128
         1            2.000000        40.649619429       305.632802664    -12705.386302297    -12664.705029672         0.734407660
       283          566.000000        23.584628614       177.326042512    -12689.983293462    -12664.609511455         0.908959032
       327          654.000000        32.549630006       244.731310752    -12699.299984817    -12664.833412736         0.353408150
       770         1540.000000        29.856567049       224.482944570    -12696.000614922    -12664.695040298         0.205530862
       286          572.000000        32.031051927       240.832271251    -12698.799595034    -12664.831954193         0.324997608
       284          568.000000        25.239900529       189.771556190    -12691.718447377    -12664.653537936         0.294883684
       771         1542.000000        28.135861252       211.545452344    -12694.214412465    -12664.650386586         0.167247376
         2            4.000000        42.456814641       319.220583932    -12707.328189551    -12664.791539011         0.350944037
       328          656.000000        29.969386439       225.331201133    -12696.593545223    -12664.748052317         0.376639412
       287          574.000000        34.562556195       259.865924095    -12701.437884238    -12664.904250466         0.188029294
       285          570.000000        28.464524283       214.016575192    -12695.082295336    -12664.736823029         0.265383428
         3            6.000000        44.077372619       331.405093501    -12709.102642919    -12664.894089117         0.253774497
       772         1544.000000        26.964038373       202.734852990    -12693.003966137    -12664.621036201         0.283901218
       329          658.000000        27.809014140       209.087982869    -12694.341580306    -12664.675644832         0.545387502
       773         1546.000000        26.770023969       201.276114461    -12692.811920321    -12664.616556559         0.390955580
       330          660.000000        27.166343765       204.255929072    -12693.692366179    -12664.653791531         0.170965560
         4            8.000000        44.067864357       331.333603612    -12709.190741669    -12664.962682375         0.506466266
       288          576.000000        35.057764138       263.589250259    -12701.951743695    -12664.922787840         0.679352008
       774         1548.000000        27.621354374       207.677023038    -12693.704938350    -12664.637948296         0.183286524
       286          572.000000        32.031051927       240.832271251    -12698.799595034    -12664.831954193         0.615915310
       331          662.000000        28.374378665       213.338796201    -12694.987842019    -12664.693905023         0.203863972
         5           10.000000        41.521666949       312.189477268    -12706.628753329    -12664.956856519         0.285472435
       287          574.000000        34.562556195       259.865924095    -12701.437884238    -12664.904250466         0.217578485
       289          578.000000        33.340850940       250.680273495    -12700.153389025    -12664.875127855         0.290615427
       775         1550.000000        29.206969010       219.598803657    -12695.357031979    -12664.677639944         0.306301325
       332          664.000000        30.832566124       231.821201033    -12697.588604203    -12664.774493300         0.282270995
       776         1552.000000        30.951644858       232.716519804    -12697.168681921    -12664.721640236         0.188091546
       290          580.000000        30.217731282       227.198434609    -12696.881622439    -12664.779101463         0.274493706
       333          666.000000        33.317153646       250.502100355    -12700.204853616    -12664.853817157         0.158810674
       777         1554.000000        32.227444969       242.308894074    -12698.486287816    -12664.753769622         0.191986208
         6           12.000000        36.639465828       275.481610561    -12701.614504324    -12664.870909297         0.517081215
       288          576.000000        35.057764138       263.589250259    -12701.951743695    -12664.922787840         0.516872006
       334          668.000000        34.592759297       260.093012537    -12701.542321617    -12664.893025933         0.182598905
       291          582.000000        27.181685965       204.371282665    -12693.699670169    -12664.680900518         0.250700771
       335          670.000000        33.993464740       255.587089044    -12700.911051861    -12664.875212220         0.260986356
       778         1556.000000        32.595065439       245.072926709    -12698.853041424    -12664.761421640         0.448617696
       336          672.000000        31.692933445       238.290055586    -12698.502608510    -12664.810349154         0.153786486
       292          584.000000        25.719508227       193.377588596    -12692.168743021    -12664.633307043         0.444438862
       289          578.000000        33.340850940       250.680273495    -12700.153389025    -12664.875127855         0.511417160
         7           14.000000        30.785090487       231.464245374    -12695.574868015    -12664.742765609         0.525291808
       779         1558.000000        31.986448213       240.496908749    -12698.199530043    -12664.741271038         0.185224211
       293          586.000000        26.543679326       199.574294158    -12693.037743892    -12664.663748050         0.169357937
       337          674.000000        28.579987886       214.884712831    -12695.252450226    -12664.726475864         0.269207621
       780         1560.000000        30.744611369       231.159894516    -12696.886141035    -12664.702233047         0.229310600
       290          580.000000        30.217731282       227.198434609    -12696.881622439    -12664.779101463         0.324374258
         8           16.000000        25.919815261       194.883639600    -12690.572119943    -12664.634616175         0.323305596
       338          676.000000        25.855223421       194.397992122    -12692.414351636    -12664.655525837         0.186048888
       294          588.000000        29.200203702       219.547937253    -12695.827982526    -12664.755498517         0.258700790
       295          590.000000        32.309518916       242.925984491    -12699.089093277    -12664.858216559         0.155182115
       339          678.000000        24.553228254       184.608664757    -12691.063092657    -12664.621807662         0.287646127
       296          592.000000        34.294244919       257.848568746    -12701.168956225    -12664.919561254         0.139279042
         9           18.000000        23.691594669       178.130289528    -12688.341012321    -12664.598227917         0.387689175
       781         1562.000000        29.481988714       221.666597751    -12695.555465161    -12664.662791158         0.446533555
       340          680.000000        25.169052181       189.238867828    -12691.709480829    -12664.635891246         0.249024508
       292          584.000000        25.719508227       193.377588596    -12692.168743021    -12664.633307043         0.417785843
       297          594.000000        34.153206314       256.788140020    -12701.026448596    -12664.913385794         0.469038108
       782         1564.000000        28.802130247       216.554937385    -12694.840446304    -12664.642410922         0.441907810
        10           20.000000        24.667703187       185.469368870    -12689.478124791    -12664.649596439         0.476718742
       341          682.000000        27.492029297       206.704664963    -12694.131092709    -12664.692938001         0.426384561
       293          586.000000        26.543679326       199.574294158    -12693.037743892    -12664.663748050         0.223999157
       342          684.000000        30.679242814       230.668407146    -12697.449747094    -12664.774089177         0.181405997
       294          588.000000        29.200203702       219.547937253    -12695.827982526    -12664.755498516         0.214256031
       783         1566.000000        29.011918741       218.132276757    -12695.061916101    -12664.651268059         0.406947496
       343          686.000000        33.546427090       252.225941468    -12700.432707843    -12664.850844151         0.183733534
       784         1568.000000        29.972753267       225.356515344    -12696.072370185    -12664.684470022         0.196187017
        11           22.000000        28.084313004       211.157875889    -12693.178695774    -12664.764899631         0.640900781
       298          596.000000        31.873978385       239.651280442    -12698.656917964    -12664.847427230         0.676303742
       344          688.000000        35.002104601       263.170762198    -12701.942636746    -12664.893246242         0.161566082
       295          590.000000        32.309518916       242.925984491    -12699.089093277    -12664.858216559         0.309278375
       785         1570.000000        31.173170608       234.382108238    -12697.333140699    -12664.724570834         0.301958244
       786         1572.000000        31.985925682       240.492979988    -12698.185647521    -12664.751099072         0.172181251
        12           24.000000        32.189980902       242.027212528    -12697.598883016    -12664.893747593         0.491689121
       296          592.000000        34.294244919       257.848568746    -12701.168956225    -12664.919561254         0.476988726
       787         1574.000000        31.972576215       240.392609188    -12698.171430331    -12664.751142128         0.168716931
       299          598.000000        28.351286470       213.165172627    -12694.998140101    -12664.752453157         0.619048248
       297          594.000000        34.153206314       256.788140020    -12701.026448596    -12664.913385794         0.152219500
       788         1576.000000        31.081771316       233.694903237    -12697.238680695    -12664.724806625         0.186963760
       298          596.000000        31.873978385       239.651280442    -12698.656917964    -12664.847427230         0.168127808
        13           26.000000        34.995511128       263.121187770    -12700.644769266    -12664.981373093         0.388239705
       300          600.000000        24.947844237       187.575668893    -12691.467787185    -12664.665246616         0.265157965
       346          692.000000        32.276307744       242.676279238    -12699.077727530    -12664.818170250         0.433748142
       789         1578.000000        29.657703886       222.987749617    -12695.748782275    -12664.683613684         0.180705897
        14           28.000000        35.097428422       263.887474607    -12700.838645619    -12664.991800143         0.181478089
       790         1580.000000        28.276462208       212.602590512    -12694.303626879    -12664.644318750         0.182701797
       347          694.000000        29.371320804       220.834517553    -12696.038148422    -12664.730803534         0.280814064
        15           30.000000        32.228560906       242.317284488    -12697.897088803    -12664.922381306         0.151525786
       299          598.000000        28.351286470       213.165172627    -12694.998140101    -12664.752453157         0.430831579
       791         1582.000000        27.498582390       206.753935785    -12693.487290850    -12664.621940217         0.183621875
       300          600.000000        24.947844237       187.575668893    -12691.467787185    -12664.665246616         0.161825095
       301          602.000000        22.942721760       172.499729410    -12689.390772078    -12664.615219944         0.538122552
       792         1584.000000        27.642948208       207.839380864    -12693.631410419    -12664.624585389         0.188459896
        16           32.000000        27.319884111       205.410354798    -12692.792589265    -12664.802090147         0.311485280
       348          696.000000        27.121518596       203.918901511    -12693.691742505    -12664.662742468         0.343572887
       302          604.000000        23.076334228       173.504323150    -12689.531229367    -12664.617412691         0.258444850
       349          698.000000        26.558991163       199.689419462    -12693.120429914    -12664.649692332         0.163048180
       303          606.000000        25.311849289       190.312518235    -12691.849029498    -12664.670386253         0.162761320
       301          602.000000        22.942721760       172.499729410    -12689.390772078    -12664.615219944         0.439575679
       350          700.000000        27.884347412       209.654392083    -12694.530516584    -12664.698408225         0.269729991
        17           34.000000        22.089915861       166.087727017    -12687.319076195    -12664.676078938         0.462684751
       793         1586.000000        28.663351915       215.511502998    -12694.687653054    -12664.651027363         0.492125749
       304          608.000000        28.854742224       216.950511710    -12695.521103063    -12664.757120268         0.162972932
       302          604.000000        23.076334228       173.504323150    -12689.531229367    -12664.617412691         0.234804043
       351          702.000000        30.368456635       228.331695211    -12697.150591777    -12664.782441297         0.249900050
       303          606.000000        25.311849289       190.312518235    -12691.849029498    -12664.670386253         0.172963388
       305          610.000000        32.417726894       243.739569167    -12699.214082835    -12664.848532882         0.320630773
       352          704.000000        32.734987029       246.124956919    -12699.638030120    -12664.858283638         0.174178831
        18           36.000000        18.376993446       138.171330759    -12683.393028617    -12664.587356986         0.475160987
       304          608.000000        28.854742224       216.950511710    -12695.521103063    -12664.757120268         0.188138200
       794         1588.000000        30.166971433       226.816785901    -12696.247124353    -12664.691159157         0.494374346
       353          706.000000        33.798466721       254.120955000    -12700.752284391    -12664.889713002         0.173260830
       306          612.000000        34.669776055       260.672079400    -12701.546993787    -12664.910710289         0.239304821
       795         1590.000000        31.567653625       237.348112634    -12697.699350579    -12664.729279494         0.186352087
       305          610.000000        32.417726894       243.739569167    -12699.214082835    -12664.848532882         0.278957235
        19           38.000000        17.485237519       131.466474303    -12682.375177351    -12664.564174321         0.307413125
       307          614.000000        34.748380664       261.263084854    -12701.621883408    -12664.916532304         0.187337807
       354          708.000000        33.009660234       248.190145788    -12699.925273586    -12664.864590538         0.282984149
       308          616.000000        32.653022650       245.508690318    -12699.435209972    -12664.859228451         0.196640173
       355          710.000000        30.657043048       230.501493486    -12697.466537248    -12664.796615278         0.187226388
       796         1592.000000        32.321731720       243.017809053    -12698.477351748    -12664.749807039         0.359467468
       306          612.000000        34.669776055       260.672079400    -12701.546993787    -12664.910710289         0.346358490
        20           40.000000        19.746405047       148.467542915    -12684.619533159    -12664.614247644         0.347523329
       309          618.000000        29.321297716       220.458408334    -12695.961877895    -12664.760855496         0.179585782
       356          712.000000        27.684625697       208.152741928    -12694.366626274    -12664.715148230         0.272343499
       357          714.000000        25.264551678       189.956901094    -12691.848249836    -12664.651358732         0.156813559
       797         1594.000000        32.158180756       241.788116370    -12698.297743467    -12664.743850924         0.511175358
       310          620.000000        26.277396203       197.572187910    -12692.792182085    -12664.667035867         0.440907535
       307          614.000000        34.748380664       261.263084854    -12701.621883408    -12664.916532304         0.509393916
       358          716.000000        24.328358554       182.917934128    -12690.879164848    -12664.627339951         0.150560181
        21           42.000000        24.400531687       183.460583168    -12689.351106406    -12664.723230348         0.704007062
       798         1596.000000        31.204701033       234.619176437    -12697.293266346    -12664.713892227         0.334249049
        22           44.000000        29.824132321       224.239077170    -12694.899564965    -12664.856273445         0.161716713
       359          718.000000        25.227034585       189.674820856    -12691.821718275    -12664.650470531         0.376944509
       311          622.000000        24.946888222       187.568480887    -12691.415490524    -12664.625569736         0.435279227
       308          616.000000        32.653022650       245.508690318    -12699.435209972    -12664.859228451         0.454754846
       799         1598.000000        29.942485935       225.128943975    -12695.966702180    -12664.673773158         0.169361678
        23           46.000000        34.072532217       256.181574672    -12699.256454282    -12664.964990157         0.188750883
       800         1600.000000        28.993830383       217.996275592    -12694.969311615    -12664.642869335         0.243890934
       360          720.000000        27.614552926       207.625884907    -12694.314173469    -12664.712323100         0.310840599
       312          624.000000        25.955695671       195.153414085    -12692.483599026    -12664.659085538         0.306477247
        24           48.000000        35.612020942       267.756547833    -12700.832565997    -12665.003082951         0.190724617
       309          618.000000        29.321297716       220.458408334    -12695.961877895    -12664.760855496         0.307807019
       310          620.000000        26.277396203       197.572187910    -12692.792182085    -12664.667035867         0.202604041
       313          626.000000        28.802888529       216.560638684    -12695.466752527    -12664.750249312         0.272999642
        25           50.000000        33.993331923       255.586090433    -12699.161470764    -12664.948921796         0.273514809
       311          622.000000        24.946888222       187.568480887    -12691.415490524    -12664.625569736         0.171935234
       801         1602.000000        28.831808883       216.778082514    -12694.796486933    -12664.636496569         0.441800658
       361          722.000000        30.576711611       229.897504507    -12697.404616889    -12664.791026748         0.539187551
       314          628.000000        32.112750970       241.446542870    -12698.921181682    -12664.851492053         0.269238760
        26           52.000000        30.137231215       226.593177749    -12695.203919697    -12664.823419874         0.255961189
       802         1604.000000        29.552880931       222.199615950    -12695.548850260    -12664.657767430         0.183348075
       312          624.000000        25.955695671       195.153414085    -12692.483599026    -12664.659085538         0.286403909
       362          724.000000        32.966951860       247.869033796    -12699.898312893    -12664.857062278         0.191292961
       803         1606.000000        30.830032174       231.802148999    -12696.883232388    -12664.695985554         0.196216545
       363          726.000000        33.853027097       254.531178783    -12700.821180868    -12664.882938777         0.164613866
       315          630.000000        34.327740817       258.100414768    -12701.220241583    -12664.912943420         0.361383210
        27           54.000000        25.993828950       195.440127253    -12690.995833659    -12664.686919883         0.369891653
       313          626.000000        28.802888529       216.560638684    -12695.466752527    -12664.750249312         0.240811898
       804         1608.000000        32.069872961       241.124155449    -12698.178220415    -12664.732557433         0.168359581
       364          728.000000        32.921135856       247.524556436    -12699.842120251    -12664.855349900         0.196627278
       805         1610.000000        32.689271886       245.781237901    -12698.824627536    -12664.750532706         0.205207477
       314          628.000000        32.112750970       241.446542870    -12698.921181682    -12664.851492053         0.239885115
       316          632.000000        34.447678171       259.002189258    -12701.328952177    -12664.908794318         0.282152636
        28           56.000000        23.643742473       177.770502627    -12688.704914895    -12664.609771204         0.292071029
       365          730.000000        30.656274796       230.495717225    -12697.464929005    -12664.784540463         0.163160494
       806         1612.000000        32.373032121       243.403522018    -12698.494600375    -12664.742120536         0.237066780
       366          732.000000        28.170228112       211.803846882    -12694.852091866    -12664.703406438         0.230100064
        29           58.000000        24.270347543       182.481766011    -12689.548740519    -12664.632503625         0.362844103
       807         1614.000000        31.199512796       234.580167575    -12697.271240814    -12664.710895651         0.179230333
       315          630.000000        34.327740817       258.100414768    -12701.220241583    -12664.912943420         0.448568503
       317          634.000000        32.434103628       243.862701125    -12699.220267979    -12664.845922286         0.446460230
       367          734.000000        26.703554400       200.776348878    -12693.304181092    -12664.652864907         0.203904429
       368          736.000000        27.021405104       203.166176949    -12693.624636457    -12664.659798552         0.177758426
       318          636.000000        29.139002944       219.087786344    -12695.791057203    -12664.754284541         0.253440343
        30           60.000000        27.567566747       207.272609333    -12693.174847190    -12664.742282291         0.308284761
       808         1616.000000        29.596249736       222.525693526    -12695.600632118    -12664.669069567         0.316111623
       316          632.000000        34.447678171       259.002189258    -12701.328952177    -12664.908794318         0.283448023
       369          738.000000        29.020856912       218.199480297    -12695.706117316    -12664.721363753         0.541835580
       370          740.000000        31.772491985       238.888233376    -12698.574948698    -12664.806519033         0.160742946
        31           62.000000        31.917754237       239.980418493    -12697.857442407    -12664.881298561         0.755490294
       317          634.000000        32.434103628       243.862701125    -12699.220267978    -12664.845922286         0.772264464
       371          742.000000        33.974817485       255.446885696    -12700.870281620    -12664.873640980         0.160665511
       319          638.000000        25.878268365       194.571260435    -12692.411717026    -12664.670134603         0.836130716
       809         1618.000000        28.161957567       211.741663035    -12694.105655586    -12664.632157614         0.844021552
        32           64.000000        35.225725620       264.852104359    -12701.385502755    -12664.980452281         0.181611887
       810         1620.000000        27.433831945       206.267095804    -12693.344220222    -12664.613412748         0.199387445
       318          636.000000        29.139002944       219.087786344    -12695.791057203    -12664.754284541         0.275674654
       320          640.000000        23.889781284       179.620397715    -12690.363107874    -12664.622336517         0.250043283
       372          744.000000        34.571011360       259.929496046    -12701.491395044    -12664.892225265         0.294324157
       811         1622.000000        27.685884795       208.162208722    -12693.600557289    -12664.619604488         0.208115163
        34           68.000000        33.686033819       253.275604328    -12699.751871295    -12664.927026838         0.233947951
       319          638.000000        25.878268365       194.571260435    -12692.411717026    -12664.670134603         0.350142744
       373          746.000000        33.213485556       249.722649786    -12700.081080164    -12664.855726477         0.314958997
       812         1624.000000        28.825117339       216.727770718    -12694.778034789    -12664.648866005         0.180574498
        35           70.000000        29.385727426       220.942836801    -12695.210557108    -12664.808576565         0.240748878
       321          642.000000        23.888066910       179.607507829    -12690.378818870    -12664.625125225         0.623362840
        36           72.000000        24.704703796       185.747565814    -12690.273194828    -12664.689268651         0.163428679
       320          640.000000        23.889781284       179.620397715    -12690.363107874    -12664.622336517         0.409633565
       813         1626.000000        30.420088359       228.719899301    -12696.428684551    -12664.690886942         0.396766165
       374          748.000000        30.380455773       228.421913279    -12697.142147473    -12664.780857364         0.424441424
       322          644.000000        25.838207512       194.270054392    -12692.415487506    -12664.676031363         0.161283562
        37           74.000000        21.372637494       160.694717176    -12686.750062937    -12664.610882186         0.199833674
       323          646.000000        28.989854744       217.966383909    -12695.690362981    -12664.757151539         0.240183501
        38           76.000000        20.540860392       154.440824266    -12685.839619178    -12664.596755104         0.240705007
       375          750.000000        27.142089468       204.073567986    -12693.789282367    -12664.697472680         0.339982777
       814         1628.000000        31.858047155       239.531498109    -12697.915666471    -12664.729745276         0.383275018
       324          648.000000        32.152382696       241.744522423    -12698.966189179    -12664.839475493         0.155822408
        39           78.000000        22.416082931       168.540083452    -12687.754552524    -12664.648542465         0.221915962
       321          642.000000        23.888066910       179.607507829    -12690.378818870    -12664.625125225         0.617365328
       325          650.000000        34.137995908       256.673777346    -12701.009588385    -12664.891137526         0.214082012
       376          752.000000        24.718256551       185.849465078    -12691.287825528    -12664.636101050         0.361164979
       815         1630.000000        32.584459763       244.993185682    -12698.661727712    -12664.749425819         0.350175097
        40           80.000000        26.228983905       197.208189758    -12691.693412415    -12664.747581561         0.176338694
       326          652.000000        34.238397822       257.428670474    -12701.086096332    -12664.889501037         0.214077949
       322          644.000000        25.838207512       194.270054392    -12692.415487506    -12664.676031363         0.257328559
       377          754.000000        24.015210028       180.563460383    -12690.574548695    -12664.618084722         0.283422285
       816         1632.000000        32.338790252       243.146067248    -12698.395078651    -12664.740869918         0.280091486
       323          646.000000        28.989854744       217.966383909    -12695.690362981    -12664.757151539         0.161433005
       327          654.000000        32.549630006       244.731310752    -12699.299984817    -12664.833412736         0.241912221
       378          756.000000        25.297361356       190.203587631    -12691.920137808    -12664.649887980         0.175740326
        41           82.000000        30.521598592       229.483125559    -12696.138993809    -12664.859275273         0.440856275
       324          648.000000        32.152382696       241.744522423    -12698.966189179    -12664.839475493         0.267376254
       817         1634.000000        31.281330974       235.195334932    -12697.283054879    -12664.707522669         0.306250966
       379          758.000000        28.088088413       211.186262105    -12694.828053432    -12664.721363415         0.178991917
       328          656.000000        29.969386439       225.331201133    -12696.593545223    -12664.748052317         0.266207187
        42           84.000000        33.678379308       253.218052259    -12699.407946735    -12664.941743419         0.201118589