#     Step Nr.          Time[fs]        Kin.[a.u.]          Temp[K]            Pot.[a.u.]        Cons Qty[a.u.]        UsedTime[s]
         0            0.000000        39.900448259       300.000000000    -12704.580765681    -12664.671840924         0.000000000
        70          140.000000        36.273719734       272.731670827    -12702.173775601    -12664.974937369         0.257254735
        44           88.000000        32.990212766       248.043925861    -12698.655929811    -12664.902731154         0.741626816
       112          224.000000        23.654078158       177.848213668    -12689.356983981    -12664.607621282         0.320185811
         5           10.000000        41.521666949       312.189477268    -12706.628753329    -12664.956856519         0.533296208
        32           64.000000        35.225725620       264.852104359    -12701.385502755    -12664.980452281         0.357453204
         1            2.000000        40.649619429       305.632802664    -12705.386302297    -12664.705029672         0.567731747
         6           12.000000        36.639465828       275.481610561    -12701.614504324    -12664.870909297         0.232360221
       136          272.000000        35.754466290       268.827553454    -12702.028759425    -12664.956969319         0.320198295
        35           70.000000        29.385727426       220.942836801    -12695.210557108    -12664.808576565         0.798972944
        71          142.000000        36.327790525       273.138213556    -12702.213036214    -12664.970316642         0.458538534
        59          118.000000        30.479585330       229.167239917    -12696.209445102    -12664.782081203         0.900562755
        78          156.000000        30.055348920       225.977528313    -12695.991089010    -12664.793523915         1.321097897
        33           66.000000        35.933082174       270.170514935    -12702.132876362    -12664.995944756         0.403998557
        13           26.000000        34.995511128       263.121187770    -12700.644769266    -12664.981373093         1.332031611
       134          268.000000        27.430812149       206.244390822    -12693.391030020    -12664.724510871         2.663495880
         2            4.000000        42.456814641       319.220583932    -12707.328189551    -12664.791539011         0.455101007
       113          226.000000        22.183737198       166.793142677    -12687.832516447    -12664.574708426         0.811843688
        45           90.000000        29.936089528       225.080851232    -12695.455656420    -12664.793125053         0.900890990
       111          222.000000        27.603707688       207.544342677    -12693.455608756    -12664.704839487         1.880147015
       107          214.000000        36.657070095       275.613971985    -12702.855079843    -12664.964921953         1.850902217
        79          158.000000        34.146912227       256.740816589    -12700.287587882    -12664.913151921         0.476496774
        36           72.000000        24.704703796       185.747565814    -12690.273194828    -12664.689268651         0.777647307
         7           14.000000        30.785090487       231.464245374    -12695.574868015    -12664.742765609         0.869349945
        34           68.000000        33.686033819       253.275604328    -12699.751871295    -12664.927026838         0.623926844
       108          216.000000        38.287725867       287.874403955    -12704.563746596    -12665.006237298         0.236716210
       114          228.000000        23.680462285       178.046588333    -12689.384470969    -12664.614753598         0.470293234
        14           28.000000        35.097428422       263.887474607    -12700.838645619    -12664.991800143         0.720182931
       112          224.000000        23.654078158       177.848213668    -12689.356983981    -12664.607621282         0.389116411
        72          144.000000        33.658732176       253.070331128    -12699.430666452    -12664.889841768         1.067207649
        80          160.000000        36.311397698       273.014960601    -12702.556440373    -12664.984147565         0.400308079
        37           74.000000        21.372637494       160.694717176    -12686.750062937    -12664.610882186         0.394813338
        35           70.000000        29.385727426       220.942836801    -12695.210557108    -12664.808576565         0.305814693
        46           92.000000        27.096409496       203.730113412    -12692.486935707    -12664.683726383         0.682268107
         8           16.000000        25.919815261       194.883639600    -12690.572119943    -12664.634616175         0.409124942
        73          146.000000        29.367785262       220.807934829    -12694.984795779    -12664.770478681         0.314672977
        74          148.000000        25.175246972       189.285444684    -12690.667151498    -12664.659364310         0.222530700
       135          270.000000        32.169513238       241.873322047    -12698.306896275    -12664.852191286         1.362103732
         3            6.000000        44.077372619       331.405093501    -12709.102642919    -12664.894089117         1.417736113
        75          150.000000        22.715779309       170.793414367    -12688.170161127    -12664.595973069         0.174557849
        38           76.000000        20.540860392       154.440824266    -12685.839619178    -12664.596755104         0.693732494
        81          162.000000        35.607199026       267.720293230    -12701.808350480    -12664.969584484         0.797226310
       136          272.000000        35.754466290       268.827553454    -12702.028759425    -12664.956969319         0.246074211
         4            8.000000        44.067864357       331.333603612    -12709.190741669    -12664.962682375         0.211178957
         9           18.000000        23.691594669       178.130289528    -12688.341012321    -12664.598227917         0.738762499
        39           78.000000        22.416082931       168.540083452    -12687.754552524    -12664.648542465         0.331551517
        76          152.000000        22.932187546       172.420525684    -12688.462688488    -12664.601679776         0.411268958
        47           94.000000        26.132830448       196.485239557    -12691.491903607    -12664.632703981         1.217081304
        36           72.000000        24.704703796       185.747565814    -12690.273194828    -12664.689268651         1.289768375
        82          164.000000        32.373094513       243.403991130    -12698.394134046    -12664.869638424         0.694968790
        40           80.000000        26.228983905       197.208189758    -12691.693412415    -12664.747581561         0.440990160
        10           20.000000        24.667703187       185.469368870    -12689.478124791    -12664.649596439         0.766119092
       395          790.000000        24.403610646       183.483732970    -12690.981530480    -12664.626107363         4.894442067
        83          166.000000        28.184256974       211.909325865    -12693.967275071    -12664.731179909         0.284795474
        11           22.000000        28.084313004       211.157875889    -12693.178695774    -12664.764899631         0.219396524
       396          792.000000        24.118971071       181.343609836    -12690.693641962    -12664.617323695         0.229027764
        84          168.000000        25.140822401       189.026616230    -12690.739178980    -12664.627381708         0.199396960
        48           96.000000        27.813540339       209.122014060    -12693.274521064    -12664.671362769         0.672568648
       397          794.000000        25.718740643       193.371817349    -12692.360323790    -12664.654700168         0.205693604
        41           82.000000        30.521598592       229.483125559    -12696.138993809    -12664.859275273         0.552214085
        12           24.000000        32.189980902       242.027212528    -12697.598883016    -12664.893747592         0.306228382
       113          226.000000        22.183737198       166.793142677    -12687.832516447    -12664.574708426         2.398001089
        82          164.000000        32.373094513       243.403991130    -12698.394134046    -12664.869638424         4.223936805
        39           78.000000        22.416082931       168.540083452    -12687.754552524    -12664.648542465         4.285365984
        15           30.000000        32.228560906       242.317284488    -12697.897088803    -12664.922381306         2.480224523
        60          120.000000        34.810940813       261.733456630    -12700.743576939    -12664.900147495         3.424498886
       137          274.000000        36.705791978       275.980297814    -12703.015070095    -12664.992354054         3.524948861
        42           84.000000        33.678379308       253.218052259    -12699.407946735    -12664.941743419         0.283148829
       137          274.000000        36.705791978       275.980297814    -12703.015070095    -12664.992354054         1.556635224
        49           98.000000        31.563839869       237.319438102    -12697.225671995    -12664.782964047         0.383551614
         5           10.000000        41.521666949       312.189477268    -12706.628753329    -12664.956856519         1.566578025
        13           26.000000        34.995511128       263.121187770    -12700.644769266    -12664.981373093         0.299417165
       109          218.000000        36.707869165       275.995915588    -12702.919749535    -12664.952861389         2.763721220
       115          230.000000        27.539376068       207.060651723    -12693.385744910    -12664.714144849         2.757763191
        83          166.000000        28.184256974       211.909325865    -12693.967275071    -12664.731179909         0.533154927
        43           86.000000        34.555935662       259.816146213    -12700.305288193    -12664.959996105         0.481973095
        16           32.000000        27.319884111       205.410354798    -12692.792589265    -12664.802090147         0.619922570
        50          100.000000        35.712341812       268.510831614    -12701.584368018    -12664.910079556         0.587869708
       110          220.000000        32.592347075       245.052488112    -12698.638380900    -12664.835679367         0.490547916
        84          168.000000        25.140822401       189.026616230    -12690.739178980    -12664.627381708         0.266367097
       116          232.000000        32.274354710       242.661594936    -12698.297816447    -12664.840022849         0.525238049
         6           12.000000        36.639465828       275.481610561    -12701.614504324    -12664.870909297         0.728716816
       313          626.000000        28.802888529       216.560638684    -12695.466752527    -12664.750249312         6.680878633
        44           88.000000        32.990212766       248.043925861    -12698.655929811    -12664.902731154         0.395166108
       394          788.000000        26.450874106       198.876518388    -12693.100523142    -12664.677891575         6.518871886
       314          628.000000        32.112750970       241.446542870    -12698.921181682    -12664.851492053         0.163697064
        45           90.000000        29.936089528       225.080851232    -12695.455656420    -12664.793125053         0.288243768
        46           92.000000        27.096409496       203.730113412    -12692.486935707    -12664.683726383         0.150841284
       117          234.000000        36.029752130       270.897348543    -12702.196739150    -12664.947121258         0.570856652
         7           14.000000        30.785090487       231.464245374    -12695.574868015    -12664.742765609         0.584263701
        77          154.000000        25.742109929       193.547524293    -12691.449569598    -12664.675466989         2.748950943
        37           74.000000        21.372637494       160.694717176    -12686.750062937    -12664.610882186         2.572963690
       118          236.000000        37.273042747       280.245293276    -12703.488116552    -12664.990598369         0.295659258
        47           94.000000        26.132830448       196.485239557    -12691.491903607    -12664.632703981         0.403924363
       111          222.000000        27.603707688       207.544342677    -12693.455608756    -12664.704839487         1.051398922
        38           76.000000        20.540860392       154.440824266    -12685.839619178    -12664.596755104         0.206721890
        85          170.000000        24.799481101       186.460169125    -12690.350384837    -12664.614605476         1.080498808
       119          238.000000        35.458033284       266.598758900    -12701.597766428    -12664.945125260         0.410388596
       138          276.000000        34.612517485       260.241568670    -12700.831666932    -12664.935076901         2.043159038
        14           28.000000        35.097428422       263.887474607    -12700.838645619    -12664.991800143         2.039225443
       139          278.000000        30.438330826       228.857059163    -12696.479393853    -12664.805192728         0.266071229
        15           30.000000        32.228560906       242.317284488    -12697.897088803    -12664.922381305         0.253053114
       120          240.000000        31.369244611       235.856332298    -12697.337998507    -12664.823641234         0.338532100
        48           96.000000        27.813540339       209.122014060    -12693.274521064    -12664.671362769         0.760995944
        86          172.000000        27.355673070       205.679441689    -12693.005796519    -12664.697795226         0.719031133
       140          280.000000        26.183279964       196.864554963    -12692.049075214    -12664.666075206         0.294061260
       114          228.000000        23.680462285       178.046588333    -12689.384470969    -12664.614753598         2.748449902
        78          156.000000        30.055348920       225.977528313    -12695.991089010    -12664.793523915         1.230242595
         8           16.000000        25.919815261       194.883639600    -12690.572119943    -12664.634616175         1.381893496
        61          122.000000        37.395972815       281.169569116    -12703.456702108    -12664.976915874         2.991135616
        17           34.000000        22.089915861       166.087727017    -12687.319076195    -12664.676078938         2.442325164
        51          102.000000        38.323171727       288.140911189    -12704.318948912    -12664.988060591         2.450644681
         9           18.000000        23.691594669       178.130289528    -12688.341012321    -12664.598227917         0.374920983
        18           36.000000        18.376993446       138.171330759    -12683.393028617    -12664.587356986         0.200707669
        62          124.000000        37.184943943       279.582903694    -12703.247779564    -12664.978466716         0.312638291
        52          104.000000        38.144094234       286.794479000    -12704.125717627    -12664.980923600         0.278610639
       141          282.000000        23.937181348       179.976785169    -12689.730238768    -12664.593101505         0.764529080
        10           20.000000        24.667703187       185.469368870    -12689.478124791    -12664.649596439         0.271635507
        49           98.000000        31.563839869       237.319438102    -12697.225671995    -12664.782964047         1.130432303
        19           38.000000        17.485237519       131.466474303    -12682.375177352    -12664.564174321         0.403427621
        16           32.000000        27.319884111       205.410354798    -12692.792589265    -12664.802090147         1.323397991
        63          126.000000        34.265742252       257.634265388    -12700.201493802    -12664.899879561         0.474078170
        50          100.000000        35.712341812       268.510831614    -12701.584368018    -12664.910079556         0.230390885
        53          106.000000        35.159925351       264.357371047    -12701.002898085    -12664.895683063         0.590072771
        64          128.000000        29.906676868       224.859705896    -12695.639611632    -12664.773664391         0.253809423
        54          108.000000        30.527189175       229.525159548    -12696.170370172    -12664.771443683         0.235237696
        51          102.000000        38.323171727       288.140911189    -12704.318948912    -12664.988060591         0.337527389
        65          130.000000        26.051316478       195.872359449    -12691.595899258    -12664.658655072         0.264688930
        66          132.000000        24.441034458       183.765111855    -12689.895661381    -12664.611451851         0.214524532
       138          276.000000        34.612517485       260.241568670    -12700.831666932    -12664.935076901         4.614612599
        40           80.000000        26.228983905       197.208189758    -12691.693412415    -12664.747581561         4.679971439
        67          134.000000        25.782257303       193.849380858    -12691.279929900    -12664.656152658         0.147997536
        87          174.000000        31.562176059       237.306928395    -12697.392517516    -12664.830124405         2.280871550
       139          278.000000        30.438330826       228.857059163    -12696.479393853    -12664.805192728         0.202244837
       142          284.000000        24.788750669       186.379490090    -12690.659653342    -12664.626375185         1.535966922
        11           22.000000        28.084313004       211.157875889    -12693.178695774    -12664.764899631         1.537470120
       121          242.000000        26.889181254       202.172023832    -12692.673595796    -12664.681142904         2.648438880
        68          136.000000        29.395245912       221.014403559    -12695.036375124    -12664.770469411         0.397498689
       122          244.000000        24.165898381       181.696442790    -12689.853449144    -12664.591243915         0.218885212
        88          176.000000        35.400619366       266.167080152    -12701.393362041    -12664.943580186         0.469895521
       143          286.000000        28.249552348       212.400263009    -12694.313560468    -12664.744256785         0.370453275
        69          138.000000        33.543122700       252.201096707    -12699.346790092    -12664.897128709         0.278165385
        41           82.000000        30.521598592       229.483125559    -12696.138993809    -12664.859275273         0.825581787
        89          178.000000        37.081894647       278.808105667    -12703.140925317    -12664.986481869         0.275848231
        90          180.000000        35.833905910       269.424837119    -12701.839047445    -12664.945196048         0.222729103
       144          288.000000        32.556164680       244.780443081    -12698.833091409    -12664.880206785         0.522415306
        70          140.000000        36.273719734       272.731670827    -12702.173775601    -12664.974937369         0.549185769
        91          182.000000        32.143857591       241.680424612    -12698.006292074    -12664.842546482         0.194857474
        71          142.000000        36.327790525       273.138213556    -12702.213036214    -12664.970316642         0.189472426
       145          290.000000        35.625750367       267.859775431    -12702.037961460    -12664.966613587         0.279135236
        17           34.000000        22.089915861       166.087727017    -12687.319076195    -12664.676078938         2.492377226
        20           40.000000        19.746405047       148.467542915    -12684.619533159    -12664.614247644         2.543810765
        92          184.000000        27.452891129       206.410396325    -12693.147880799    -12664.720932864         0.324009555
        93          186.000000        23.534196180       176.946855539    -12689.104700395    -12664.623391893         0.170388079
        52          104.000000        38.144094234       286.794479000    -12704.125717627    -12664.980923600         2.312637176
        94          188.000000        21.836614352       164.183225789    -12687.374169551    -12664.580745171         0.191039843
       123          246.000000        24.539299169       184.503935967    -12690.279804962    -12664.603321476         1.523059557
        95          190.000000        23.001113009       172.938756427    -12688.614312565    -12664.605759931         0.144196240
        42           84.000000        33.678379308       253.218052259    -12699.407946735    -12664.941743419         1.448930357
       124          248.000000        27.832071058       209.261341207    -12693.759321690    -12664.710474829         0.288480369
       125          250.000000        32.446903708       243.958941244    -12698.608980998    -12664.854627845         0.168453634
       126          252.000000        36.201996635       272.192405459    -12702.541963900    -12664.963727020         0.144327667
        56          112.000000        23.313769279       175.289529043    -12688.681164216    -12664.592102296         0.904303571
        85          170.000000        24.799481101       186.460169125    -12690.350384837    -12664.614605476         7.801499340
       398          796.000000        28.639384116       215.331296009    -12695.395829150    -12664.727012719         7.755677203
        53          106.000000        35.159925351       264.357371047    -12701.002898085    -12664.895683063         1.038287686
       127          254.000000        37.390187775       281.126073065    -12703.781249076    -12664.991058161         0.200158872
       399          798.000000        31.809450760       239.166115786    -12698.688030280    -12664.810312154         0.238821582
       112          224.000000        23.654078158       177.848213668    -12689.356983981    -12664.607621282         5.934492294
        39           78.000000        22.416082931       168.540083452    -12687.754552524    -12664.648542465         5.936744354
        57          114.000000        23.362867871       175.658687238    -12688.753746186    -12664.596490935         0.350303649
        86          172.000000        27.355673070       205.679441689    -12693.005796519    -12664.697795226         0.334098661
        54          108.000000        30.527189175       229.525159548    -12696.170370172    -12664.771443683         0.296650373
       128          256.000000        35.496071781       266.884759418    -12701.802871428    -12664.932225090         0.302467213
        55          110.000000        26.021689817       195.649605104    -12691.484245501    -12664.657072240         0.176175321
       129          258.000000        31.300487580       235.339367947    -12697.432689579    -12664.817708891         0.256659612
        87          174.000000        31.562176059       237.306928395    -12697.392517516    -12664.830124405         0.416196448
       115          230.000000        27.539376068       207.060651723    -12693.385744910    -12664.714144849         5.559880025
        56          112.000000        23.313769279       175.289529043    -12688.681164216    -12664.592102296         0.278323684
        79          158.000000        34.146912227       256.740816589    -12700.287587882    -12664.913151921         5.578296687
       116          232.000000        32.274354710       242.661594936    -12698.297816447    -12664.840022849         0.245258221
        88          176.000000        35.400619366       266.167080152    -12701.393362041    -12664.943580186         0.322151940
       130          260.000000        26.452884668       198.891635229    -12692.391787059    -12664.693682283         0.363484336
       117          234.000000        36.029752130       270.897348543    -12702.196739150    -12664.947121258         0.229388915
       118          236.000000        37.273042747       280.245293276    -12703.488116552    -12664.990598369         0.184508551
       119          238.000000        35.458033284       266.598758900    -12701.597766429    -12664.945125260         0.136758111
        58          116.000000        26.103297130       196.263187028    -12691.629560921    -12664.667688048         1.263576157
        40           80.000000        26.228983905       197.208189758    -12691.693412415    -12664.747581561         1.354031050
        96          192.000000        26.655617567       200.415925614    -12692.435224103    -12664.691694292         2.331823477
        43           86.000000        34.555935662       259.816146213    -12700.305288193    -12664.959996105         2.288767216
       400          800.000000        34.020499572       255.790356173    -12700.981061287    -12664.873408431         1.586949689
       113          226.000000        22.183737198       166.793142677    -12687.832516447    -12664.574708426         1.585195314
       120          240.000000        31.369244611       235.856332298    -12697.337998507    -12664.823641234         0.449073768
       114          228.000000        23.680462285       178.046588333    -12689.384470969    -12664.614753598         0.232581710
        59          118.000000        30.479585330       229.167239917    -12696.209445102    -12664.782081203         0.542037057
        19           38.000000        17.485237519       131.466474303    -12682.375177352    -12664.564174321         0.652633848
        60          120.000000        34.810940813       261.733456630    -12700.743576939    -12664.900147495         0.193338897
       115          230.000000        27.539376068       207.060651723    -12693.385744910    -12664.714144849         0.264366442
        41           82.000000        30.521598592       229.483125559    -12696.138993809    -12664.859275273         0.836126766
       121          242.000000        26.889181254       202.172023832    -12692.673595796    -12664.681142904         0.459788420
        20           40.000000        19.746405047       148.467542915    -12684.619533159    -12664.614247644         0.313625020
        42           84.000000        33.678379308       253.218052259    -12699.407946735    -12664.941743419         0.332395155
        43           86.000000        34.555935662       259.816146213    -12700.305288193    -12664.959996105         0.180536845
        44           88.000000        32.990212766       248.043925861    -12698.655929810    -12664.902731154         0.167985625
        45           90.000000        29.936089528       225.080851232    -12695.455656420    -12664.793125053         0.207820749
        89          178.000000        37.081894647       278.808105667    -12703.140925317    -12664.986481869         2.449282145
        46           92.000000        27.096409496       203.730113412    -12692.486935707    -12664.683726383         0.175914534
       131          262.000000        22.783221521       171.300492967    -12688.579460165    -12664.603679639         2.482807420
        90          180.000000        35.833905910       269.424837119    -12701.839047445    -12664.945196048         0.184594563
        91          182.000000        32.143857591       241.680424612    -12698.006292074    -12664.842546482         0.150821023
        92          184.000000        27.452891129       206.410396325    -12693.147880799    -12664.720932864         0.152401303
        93          186.000000        23.534196180       176.946855539    -12689.104700395    -12664.623391893         0.157186425
        80          160.000000        36.311397698       273.014960601    -12702.556440373    -12664.984147565         3.301555343
        57          114.000000        23.362867871       175.658687238    -12688.753746186    -12664.596490935         3.349814112
        94          188.000000        21.836614352       164.183225789    -12687.374169551    -12664.580745171         0.174784425
        97          194.000000        31.520274444       236.991882192    -12697.508109800    -12664.813081200         2.761314283
        58          116.000000        26.103297130       196.263187028    -12691.629560921    -12664.667688048         0.275971002
        95          190.000000        23.001113009       172.938756427    -12688.614312565    -12664.605759931         0.285256416
        59          118.000000        30.479585330       229.167239917    -12696.209445102    -12664.782081203         0.286447954
        81          162.000000        35.607199026       267.720293230    -12701.808350480    -12664.969584484         0.592973411
        96          192.000000        26.655617567       200.415925614    -12692.435224103    -12664.691694292         0.260823073
        72          144.000000        33.658732176       253.070331128    -12699.430666452    -12664.889841768         6.424485015
        97          194.000000        31.520274444       236.991882192    -12697.508109800    -12664.813081200         0.200872298
       147          294.000000        33.676792505       253.206121546    -12699.985409139    -12664.897881826         0.369988265
       148          296.000000        29.450271913       221.428128243    -12695.583821499    -12664.785088036         0.134180989
       149          298.000000        25.007313276       188.022799499    -12690.970667860    -12664.673847910         0.133592453
       150          300.000000        21.993320326       165.361452958    -12687.851474182    -12664.599897726         0.190856884
       151          302.000000        21.514243471       161.759411813    -12687.367812474    -12664.585076708         0.141315369