 DBCSR| CPU Multiplication driver                                           XSMM
 DBCSR| Multrec recursion limit                                              512
 DBCSR| Multiplication stack size                                           1000
 DBCSR| Maximum elements for images                                    UNLIMITED
 DBCSR| Multiplicative factor virtual images                                   1
 DBCSR| Use multiplication densification                                       T
 DBCSR| Multiplication size stacks                                             3
 DBCSR| Number of 3D layers                                               SINGLE
 DBCSR| Use MPI memory allocation                                              T
 DBCSR| Use RMA algorithm                                                      F
 DBCSR| Use Communication thread                                               T
 DBCSR| Communication thread load                                             83


  **** **** ******  **  PROGRAM STARTED AT               2023-07-31 12:14:13.692
 ***** ** ***  *** **   PROGRAM STARTED ON                                r1i3n3
 **    ****   ******    PROGRAM STARTED BY                         mrnuff-cirrus
 ***** **    ** ** **   PROGRAM PROCESS ID                               1216015
  **** **  *******  **  PROGRAM STARTED IN /mnt/lustre/indy2lfs/work/tc047/tc047
                                           /mrnuff-cirrus/cp2k/nuff-benchmarks/f
                                           ayalite/4-node

 CP2K| version string:                                          CP2K version 7.1
 CP2K| source code revision number:                                  git:e635599
 CP2K| cp2kflags: omp libint fftw3 libxc elpa parallel mpi3 scalapack xsmm max_c
 CP2K|            ontr=4 plumed2 spglib mkl
 CP2K| is freely available from                            https://www.cp2k.org/
 CP2K| Program compiled at                          Thu Jun 30 12:29:55 BST 2022
 CP2K| Program compiled on                                         cirrus-login3
 CP2K| Program compiled for                                         Cirrus-intel
 CP2K| Data directory path       /mnt/lustre/indy2lfs/sw/cp2k/7.1/cp2k/cp2k/data
 CP2K| Input file name        /work/tc047/tc047/mrnuff-cirrus/cp2k/benchmarks/Fa
 
 GLOBAL| Force Environment number                                              1
 GLOBAL| Basis set file name                                           BASIS_SET
 GLOBAL| Potential file name                                           POTENTIAL
 GLOBAL| MM Potential file name                                     MM_POTENTIAL
 GLOBAL| Coordinate file name                                      __STD_INPUT__
 GLOBAL| Method name                                                        CP2K
 GLOBAL| Project name                                         fayalite_pedone_md
 GLOBAL| Preferred FFT library                                             FFTW3
 GLOBAL| Preferred diagonalization lib.                                     ELPA
 GLOBAL| Run type                                                             MD
 GLOBAL| All-to-all communication in single precision                          F
 GLOBAL| FFTs using library dependent lengths                                  F
 GLOBAL| Global print level                                                  LOW
 GLOBAL| MPI I/O enabled                                                       T
 GLOBAL| Total number of message passing processes                            72
 GLOBAL| Number of threads for this process                                    2
 GLOBAL| This output is from process                                           0
 GLOBAL| CPU model name                Intel(R) Xeon(R) CPU E5-2695 v4 @ 2.10GHz
 GLOBAL| CPUID                                                              1002
 GLOBAL| Compiled for CPUID                                                    0

 MEMORY| system memory details [Kb]
 MEMORY|                        rank 0           min           max       average
 MEMORY| MemTotal            263585916     263585916     263585924     263585918
 MEMORY| MemFree             258223332     258223332     258353960     258269971
 MEMORY| Buffers                    64            64            64            64
 MEMORY| Cached                 286980        286980        368068        333313
 MEMORY| Slab                  1636704       1490228       1636704       1574084
 MEMORY| SReclaimable           133784        101036        133784        116721
 MEMORY| MemLikelyFree       258644160     258644160     258823128     258720069



                      ************* ******** ***********   
                     ************* **********************  
                     ****     **** ****      ***********   
                     ******** ****  *******     ****       
                     *******  ****   *******   ****        
                     ****     ****       ****  ****        
                     ****     **** **********  ****        
                      ****     **** ********    ****       
                     FRONTIERS IN SIMULATION TECHNOLOGY    
                                                           
                        C.J. Mundy, S. Balasubramanian,    
                     Ken Bagchi, J. Hutter, Ari Seitsonen  
                      IFW Kuo, T. Laino, J. VandeVondele   
                                 Version 1.0               

                                                           


 EWALD| Summation is done by:                                               SPME
 EWALD| Alpha parameter [       ANGSTROM^-1]                              0.3500
 EWALD| Real Space Cutoff [          ANGSTROM]                            9.6398
 EWALD| G-space max. Miller index                         15        33        19
 EWALD| Spline interpolation order                                             6
 
 GENERATE|  Preliminary Number of Bonds generated:                             0
 GENERATE|  Achieved consistency in connectivity generation.
 CHARGE_INFO| Total Charge of the Classical System:                     0.000000
 
 FORCEFIELD| WARNING: A non Critical ForceField parameter is missing! CP2K GOES!
 FORCEFIELD| Non critical parameters are:Urey-Bradley,Torsions,Impropers, Opbends and 1-4
 FORCEFIELD| All missing parameters will not contribute to the potential energy!
 FORCEFIELD| Activate the print key FF_INFO to have a list of missing parameters
 

 SPLINE_INFO| Generating 6 splines for NONBONDED14 interactions 
              Due to 3 different atomic kinds
  ...1  ...2  ...3  ...4  ...5  ...6
 SPLINE_INFO| Number of unique splines computed:            1
 SPLINE_INFO| Done
 
 FORCEFIELD| WARNING: A non Critical ForceField parameter is missing! CP2K GOES!
 FORCEFIELD| Non critical parameters are:Urey-Bradley,Torsions,Impropers, Opbends and 1-4
 FORCEFIELD| All missing parameters will not contribute to the potential energy!
 
 FORCEFIELD| Missing Spline_Non_Bond_En(  FE,  FE)                              
                                                                                
                                                                                
 
 FORCEFIELD| WARNING: Ignoring missing critical FF parameters! CP2K GOES!
 FORCEFIELD| Critical parameters are: Bonds, Bends and Charges
 FORCEFIELD| All missing parameters will not contribute to the potential energy!

 SPLINE_INFO| Generating 6 splines for NONBONDED interactions 
              Due to 3 different atomic kinds
  ...1  ...2  ...3  ...4  ...5  ...6
 SPLINE_INFO| Number of unique splines computed:            4
 SPLINE_INFO| Done
 
 MD| Molecular Dynamics Protocol 
 MD| Ensemble Type                                                         NPT_I
 MD| Number of Time Steps                                                   1000
 MD| Time Step [fs]                                                         2.00
 MD| Temperature [K]                                                      300.00
 MD| Temperature tolerance [K]                                              0.00
 MD| Pressure [Bar]                                                         1.00
 MD| Barostat time constant [  fs]                                       1000.00
 MD| Print MD information every                                        1 step(s)
 MD| File type     Print frequency[steps]                             File names
 MD| Coordinates            1                       fayalite_pedone_md-pos-1.xyz
 MD| Simulation Cel         1                          fayalite_pedone_md-1.cell
 MD| Velocities             1                       fayalite_pedone_md-vel-1.xyz
 MD| Energies               1                          fayalite_pedone_md-1.ener
 MD| Dump                  20                       fayalite_pedone_md-1.restart
 
 ROT| Rotational Analysis Info 
 ROT| Principal axes and moments of inertia in atomic units:
 ROT|                                1                 2                 3
 ROT| EIGENVALUES            0.266668640E+13   0.588449620E+13   0.649421282E+13
 ROT|      X                    -0.000672186       0.003504948       0.999993632
 ROT|      Y                    -0.999997976      -0.001898520      -0.000665534
 ROT|      Z                    -0.001896175       0.999992055      -0.003506217
 ROT| Number of Rotovibrational vectors:     6

 Calculation of degrees of freedom
                                                      Number of atoms:     28000
                                 Number of Intramolecular constraints:         0
                                 Number of Intermolecular constraints:         0
                                  Invariants(translation + rotations):         3
                                                   Degrees of freedom:     83997


 Restraints Information
                                  Number of Intramolecular restraints:         0
                                  Number of Intermolecular restraints:         0

 THERMOSTAT| Thermostat Info for PARTICLES
 THERMOSTAT| Type of thermostat                               Nose-Hoover-Chains
 THERMOSTAT| Nose-Hoover-Chain length                                          3
 THERMOSTAT| Nose-Hoover-Chain time constant [  fs]                      1000.00
 THERMOSTAT| Order of Yoshida integrator                                       3
 THERMOSTAT| Number of multiple time steps                                     2
 THERMOSTAT| Initial Potential Energy                                   0.000000
 THERMOSTAT| Initial Kinetic Energy                                     0.000475
 THERMOSTAT| End of Thermostat Info for PARTICLES


 THERMOSTAT| Thermostat Info for BAROSTAT
 THERMOSTAT| Type of thermostat                               Nose-Hoover-Chains
 THERMOSTAT| Nose-Hoover-Chain length                                          3
 THERMOSTAT| Nose-Hoover-Chain time constant [  fs]                      1000.00
 THERMOSTAT| Order of Yoshida integrator                                       3
 THERMOSTAT| Number of multiple time steps                                     2
 THERMOSTAT| Initial Potential Energy                                   0.000000
 THERMOSTAT| Initial Kinetic Energy                                     0.000475
 THERMOSTAT| End of Thermostat Info for BAROSTAT

 ************************** Velocities initialization **************************
 Initial Temperature                                                    300.00 K
 COM velocity:           -0.000000000000      0.000000000000     -0.000000000000
 *******************************************************************************


 ENERGY| Total FORCE_EVAL ( FIST ) energy (a.u.):         -12704.580765675420480

 
 MD_ENERGIES| Initialization proceeding
 

 ******************************** GO CP2K GO! **********************************
 INITIAL POTENTIAL ENERGY[hartree]     =                     -0.127045807657E+05
 INITIAL KINETIC ENERGY[hartree]       =                      0.399004482585E+02
 INITIAL TEMPERATURE[K]                =                                 300.000
 INITIAL BAROSTAT TEMP[K]              =                      0.300000000000E+03
 INITIAL PRESSURE[bar]                 =                     -0.400966342633E+05
 INITIAL VOLUME[bohr^3]                =                      0.207460226844E+07
 INITIAL CELL LNTHS[bohr]   =      0.9107535E+02   0.1980206E+03   0.1150333E+03
 INITIAL CELL ANGLS[deg]    =      0.9000000E+02   0.9000000E+02   0.9000000E+02
 ******************************** GO CP2K GO! **********************************

 ENERGY| Total FORCE_EVAL ( FIST ) energy (a.u.):         -12705.386302296772556


 *******************************************************************************
 ENSEMBLE TYPE                =                                            NPT_I
 STEP NUMBER                  =                                                1
 TIME [fs]                    =                                         2.000000
 CONSERVED QUANTITY [hartree] =                              -0.126647050297E+05

                                              INSTANTANEOUS             AVERAGES
 CPU TIME [s]                 =                        0.87                 0.87
 ENERGY DRIFT PER ATOM [K]    =         -0.374291665505E+00   0.000000000000E+00
 POTENTIAL ENERGY[hartree]    =         -0.127053863023E+05  -0.127053863023E+05
 KINETIC ENERGY [hartree]     =          0.406496194293E+02   0.406496194293E+02
 TEMPERATURE [K]              =                     305.633              305.633
 PRESSURE [bar]               =         -0.376562988179E+05  -0.376562988179E+05
 BAROSTAT TEMP[K]             =          0.145643225534E+05   0.145643225534E+05
 VOLUME[bohr^3]               =          0.207442705206E+07   0.207442705206E+07
 CELL LNTHS[bohr]             =    0.9107279E+02   0.1980150E+03   0.1150301E+03
 AVE. CELL LNTHS[bohr]        =    0.9107279E+02   0.1980150E+03   0.1150301E+03
 *******************************************************************************


 ENERGY| Total FORCE_EVAL ( FIST ) energy (a.u.):         -12707.328189550569732


 *******************************************************************************
 ENSEMBLE TYPE                =                                            NPT_I
 STEP NUMBER                  =                                                2
 TIME [fs]                    =                                         4.000000
 CONSERVED QUANTITY [hartree] =                              -0.126647915390E+05

                                              INSTANTANEOUS             AVERAGES
 CPU TIME [s]                 =                        0.28                 0.57
 ENERGY DRIFT PER ATOM [K]    =         -0.134991510427E+01  -0.674957552135E+00
 POTENTIAL ENERGY[hartree]    =         -0.127073281896E+05  -0.127063572459E+05
 KINETIC ENERGY [hartree]     =          0.424568146408E+02   0.415532170350E+02
 TEMPERATURE [K]              =                     319.221              312.427
 PRESSURE [bar]               =         -0.304467102115E+05  -0.340515045147E+05
 BAROSTAT TEMP[K]             =          0.445267279560E+05   0.295455252547E+05
 VOLUME[bohr^3]               =          0.207400387314E+07   0.207421546260E+07
 CELL LNTHS[bohr]             =    0.9106659E+02   0.1980016E+03   0.1150222E+03
 AVE. CELL LNTHS[bohr]        =    0.9106969E+02   0.1980083E+03   0.1150261E+03
 *******************************************************************************


 ENERGY| Total FORCE_EVAL ( FIST ) energy (a.u.):         -12709.102642918607671


 *******************************************************************************
 ENSEMBLE TYPE                =                                            NPT_I
 STEP NUMBER                  =                                                3
 TIME [fs]                    =                                         6.000000
 CONSERVED QUANTITY [hartree] =                              -0.126648940891E+05

                                              INSTANTANEOUS             AVERAGES
 CPU TIME [s]                 =                        0.16                 0.44
 ENERGY DRIFT PER ATOM [K]    =         -0.250644094608E+01  -0.128545201678E+01
 POTENTIAL ENERGY[hartree]    =         -0.127091026429E+05  -0.127072723783E+05
 KINETIC ENERGY [hartree]     =          0.440773726195E+02   0.423946022298E+02
 TEMPERATURE [K]              =                     331.405              318.753
 PRESSURE [bar]               =         -0.189672807044E+05  -0.290234299113E+05
 BAROSTAT TEMP[K]             =          0.762802030183E+05   0.451237511759E+05
 VOLUME[bohr^3]               =          0.207338101233E+07   0.207393731251E+07
 CELL LNTHS[bohr]             =    0.9105748E+02   0.1979818E+03   0.1150107E+03
 AVE. CELL LNTHS[bohr]        =    0.9106562E+02   0.1979995E+03   0.1150210E+03
 *******************************************************************************


 ENERGY| Total FORCE_EVAL ( FIST ) energy (a.u.):         -12709.190741668766350


 *******************************************************************************
 ENSEMBLE TYPE                =                                            NPT_I
 STEP NUMBER                  =                                                4
 TIME [fs]                    =                                         8.000000
 CONSERVED QUANTITY [hartree] =                              -0.126649626824E+05

                                              INSTANTANEOUS             AVERAGES
 CPU TIME [s]                 =                        0.20                 0.38
 ENERGY DRIFT PER ATOM [K]    =         -0.328001280291E+01  -0.178409221331E+01
 POTENTIAL ENERGY[hartree]    =         -0.127091907417E+05  -0.127077519691E+05
 KINETIC ENERGY [hartree]     =          0.440678643574E+02   0.428129177617E+02
 TEMPERATURE [K]              =                     331.334              321.898
 PRESSURE [bar]               =         -0.414624319102E+04  -0.228041332312E+05
 BAROSTAT TEMP[K]             =          0.936233251477E+05   0.572486446688E+05
 VOLUME[bohr^3]               =          0.207263520407E+07   0.207361178540E+07
 CELL LNTHS[bohr]             =    0.9104656E+02   0.1979580E+03   0.1149969E+03
 AVE. CELL LNTHS[bohr]        =    0.9106085E+02   0.1979891E+03   0.1150150E+03
 *******************************************************************************


 ENERGY| Total FORCE_EVAL ( FIST ) energy (a.u.):         -12706.628753329048777


 *******************************************************************************
 ENSEMBLE TYPE                =                                            NPT_I
 STEP NUMBER                  =                                                5
 TIME [fs]                    =                                        10.000000
 CONSERVED QUANTITY [hartree] =                              -0.126649568565E+05

                                              INSTANTANEOUS             AVERAGES
 CPU TIME [s]                 =                        0.16                 0.33
 ENERGY DRIFT PER ATOM [K]    =         -0.321431073962E+01  -0.207013591858E+01
 POTENTIAL ENERGY[hartree]    =         -0.127066287533E+05  -0.127075273260E+05
 KINETIC ENERGY [hartree]     =          0.415216669486E+02   0.425546675991E+02
 TEMPERATURE [K]              =                     312.189              319.956
 PRESSURE [bar]               =          0.125924255432E+05  -0.157248214763E+05
 BAROSTAT TEMP[K]             =          0.860995963653E+05   0.630188350081E+05
 VOLUME[bohr^3]               =          0.207186526626E+07   0.207326248157E+07
 CELL LNTHS[bohr]             =    0.9103528E+02   0.1979335E+03   0.1149827E+03
 AVE. CELL LNTHS[bohr]        =    0.9105574E+02   0.1979780E+03   0.1150085E+03
 *******************************************************************************


 ENERGY| Total FORCE_EVAL ( FIST ) energy (a.u.):         -12701.614504323579240


 *******************************************************************************
 ENSEMBLE TYPE                =                                            NPT_I
 STEP NUMBER                  =                                                6
 TIME [fs]                    =                                        12.000000
 CONSERVED QUANTITY [hartree] =                              -0.126648709093E+05

                                              INSTANTANEOUS             AVERAGES
 CPU TIME [s]                 =                        0.18                 0.31
 ENERGY DRIFT PER ATOM [K]    =         -0.224502667654E+01  -0.209928437824E+01
 POTENTIAL ENERGY[hartree]    =         -0.127016145043E+05  -0.127065418557E+05
 KINETIC ENERGY [hartree]     =          0.366394658279E+02   0.415688006373E+02
 TEMPERATURE [K]              =                     275.482              312.544
 PRESSURE [bar]               =          0.293614941123E+05  -0.821043554490E+04
 BAROSTAT TEMP[K]             =          0.558013001867E+05   0.618159125379E+05
 VOLUME[bohr^3]               =          0.207118211843E+07   0.207291575438E+07
 CELL LNTHS[bohr]             =    0.9102528E+02   0.1979117E+03   0.1149701E+03
 AVE. CELL LNTHS[bohr]        =    0.9105066E+02   0.1979669E+03   0.1150021E+03
 *******************************************************************************


 ENERGY| Total FORCE_EVAL ( FIST ) energy (a.u.):         -12695.574868015291941


 *******************************************************************************
 ENSEMBLE TYPE                =                                            NPT_I
 STEP NUMBER                  =                                                7
 TIME [fs]                    =                                        14.000000
 CONSERVED QUANTITY [hartree] =                              -0.126647427656E+05

                                              INSTANTANEOUS             AVERAGES
 CPU TIME [s]                 =                        0.14                 0.28
 ENERGY DRIFT PER ATOM [K]    =         -0.799864966498E+00  -0.191365303370E+01
 POTENTIAL ENERGY[hartree]    =         -0.126955748680E+05  -0.127049751432E+05
 KINETIC ENERGY [hartree]     =          0.307850904874E+02   0.400282706158E+02
 TEMPERATURE [K]              =                     231.464              300.961
 PRESSURE [bar]               =          0.440148641674E+05  -0.749678443146E+03
 BAROSTAT TEMP[K]             =          0.189308169171E+05   0.556894703063E+05
 VOLUME[bohr^3]               =          0.207069575719E+07   0.207259861192E+07
 CELL LNTHS[bohr]             =    0.9101815E+02   0.1978963E+03   0.1149611E+03
 AVE. CELL LNTHS[bohr]        =    0.9104602E+02   0.1979568E+03   0.1149962E+03
 *******************************************************************************


 ENERGY| Total FORCE_EVAL ( FIST ) energy (a.u.):         -12690.572119943077269


 *******************************************************************************
 ENSEMBLE TYPE                =                                            NPT_I
 STEP NUMBER                  =                                                8
 TIME [fs]                    =                                        16.000000
 CONSERVED QUANTITY [hartree] =                              -0.126646346162E+05

                                              INSTANTANEOUS             AVERAGES
 CPU TIME [s]                 =                        0.15                 0.27
 ENERGY DRIFT PER ATOM [K]    =          0.419808225895E+00  -0.162197037625E+01
 POTENTIAL ENERGY[hartree]    =         -0.126905721199E+05  -0.127031747653E+05
 KINETIC ENERGY [hartree]     =          0.259198152610E+02   0.382647136965E+02
 TEMPERATURE [K]              =                     194.884              287.701
 PRESSURE [bar]               =          0.545146639919E+05   0.615836436123E+04
 BAROSTAT TEMP[K]             =          0.392282892082E+02   0.487331900542E+05
 VOLUME[bohr^3]               =          0.207050103375E+07   0.207233641465E+07
 CELL LNTHS[bohr]             =    0.9101530E+02   0.1978900E+03   0.1149574E+03
 AVE. CELL LNTHS[bohr]        =    0.9104218E+02   0.1979485E+03   0.1149914E+03
 *******************************************************************************


 ENERGY| Total FORCE_EVAL ( FIST ) energy (a.u.):         -12688.341012320792288


 *******************************************************************************
 ENSEMBLE TYPE                =                                            NPT_I
 STEP NUMBER                  =                                                9
 TIME [fs]                    =                                        18.000000
 CONSERVED QUANTITY [hartree] =                              -0.126645982279E+05

                                              INSTANTANEOUS             AVERAGES
 CPU TIME [s]                 =                        0.20                 0.26
 ENERGY DRIFT PER ATOM [K]    =          0.830182846291E+00  -0.134950890708E+01
 POTENTIAL ENERGY[hartree]    =         -0.126883410123E+05  -0.127015265705E+05
 KINETIC ENERGY [hartree]     =          0.236915946687E+02   0.366454782489E+02
 TEMPERATURE [K]              =                     178.130              275.527
 PRESSURE [bar]               =          0.593562068560E+05   0.120692357495E+05
 BAROSTAT TEMP[K]             =          0.208815404475E+05   0.456385623201E+05
 VOLUME[bohr^3]               =          0.207066475464E+07   0.207215067465E+07
 CELL LNTHS[bohr]             =    0.9101770E+02   0.1978953E+03   0.1149605E+03
 AVE. CELL LNTHS[bohr]        =    0.9103946E+02   0.1979426E+03   0.1149880E+03
 *******************************************************************************


 ENERGY| Total FORCE_EVAL ( FIST ) energy (a.u.):         -12689.478124790608490


 *******************************************************************************
 ENSEMBLE TYPE                =                                            NPT_I
 STEP NUMBER                  =                                               10
 TIME [fs]                    =                                        20.000000
 CONSERVED QUANTITY [hartree] =                              -0.126646495964E+05

                                              INSTANTANEOUS             AVERAGES
 CPU TIME [s]                 =                        0.27                 0.26
 ENERGY DRIFT PER ATOM [K]    =          0.250865817719E+00  -0.118947143460E+01
 POTENTIAL ENERGY[hartree]    =         -0.126894781248E+05  -0.127003217259E+05
 KINETIC ENERGY [hartree]     =          0.246677031871E+02   0.354477007428E+02
 TEMPERATURE [K]              =                     185.469              266.521
 PRESSURE [bar]               =          0.578975053457E+05   0.166520627092E+05
 BAROSTAT TEMP[K]             =          0.892136406831E+05   0.499960701564E+05
 VOLUME[bohr^3]               =          0.207121635307E+07   0.207205724249E+07
 CELL LNTHS[bohr]             =    0.9102578E+02   0.1979128E+03   0.1149707E+03
 AVE. CELL LNTHS[bohr]        =    0.9103809E+02   0.1979396E+03   0.1149862E+03
 *******************************************************************************


 ENERGY| Total FORCE_EVAL ( FIST ) energy (a.u.):         -12693.178695774282460


 *******************************************************************************
 ENSEMBLE TYPE                =                                            NPT_I
 STEP NUMBER                  =                                               11
 TIME [fs]                    =                                        22.000000
 CONSERVED QUANTITY [hartree] =                              -0.126647648996E+05

                                              INSTANTANEOUS             AVERAGES
 CPU TIME [s]                 =                        0.18                 0.25
 ENERGY DRIFT PER ATOM [K]    =         -0.104948506963E+01  -0.117674540142E+01
 POTENTIAL ENERGY[hartree]    =         -0.126931786958E+05  -0.126996723595E+05
 KINETIC ENERGY [hartree]     =          0.280843130043E+02   0.347783018575E+02
 TEMPERATURE [K]              =                     211.158              261.488
 PRESSURE [bar]               =          0.504806944361E+05   0.197273928662E+05
 BAROSTAT TEMP[K]             =          0.193259170318E+06   0.630199883529E+05
 VOLUME[bohr^3]               =          0.207214352183E+07   0.207206508607E+07
 CELL LNTHS[bohr]             =    0.9103936E+02   0.1979424E+03   0.1149878E+03
 AVE. CELL LNTHS[bohr]        =    0.9103820E+02   0.1979399E+03   0.1149864E+03
 *******************************************************************************


 ENERGY| Total FORCE_EVAL ( FIST ) energy (a.u.):         -12697.598883016395121


 *******************************************************************************
 ENSEMBLE TYPE                =                                            NPT_I
 STEP NUMBER                  =                                               12
 TIME [fs]                    =                                        24.000000
 CONSERVED QUANTITY [hartree] =                              -0.126648937476E+05

                                              INSTANTANEOUS             AVERAGES
 CPU TIME [s]                 =                        0.23                 0.25
 ENERGY DRIFT PER ATOM [K]    =         -0.250258934607E+01  -0.128723239681E+01
 POTENTIAL ENERGY[hartree]    =         -0.126975988830E+05  -0.126994995698E+05
 KINETIC ENERGY [hartree]     =          0.321899809020E+02   0.345626084445E+02
 TEMPERATURE [K]              =                     242.027              259.866
 PRESSURE [bar]               =          0.383164426834E+05   0.212764803509E+05
 BAROSTAT TEMP[K]             =          0.304956959068E+06   0.831814025792E+05
 VOLUME[bohr^3]               =          0.207339340812E+07   0.207217577957E+07
 CELL LNTHS[bohr]             =    0.9105766E+02   0.1979822E+03   0.1150110E+03
 AVE. CELL LNTHS[bohr]        =    0.9103983E+02   0.1979434E+03   0.1149884E+03
 *******************************************************************************


 ENERGY| Total FORCE_EVAL ( FIST ) energy (a.u.):         -12700.644769266305957


 *******************************************************************************
 ENSEMBLE TYPE                =                                            NPT_I
 STEP NUMBER                  =                                               13
 TIME [fs]                    =                                        26.000000
 CONSERVED QUANTITY [hartree] =                              -0.126649813731E+05

                                              INSTANTANEOUS             AVERAGES
 CPU TIME [s]                 =                        0.20                 0.25
 ENERGY DRIFT PER ATOM [K]    =         -0.349080047411E+01  -0.145673763352E+01
 POTENTIAL ENERGY[hartree]    =         -0.127006447693E+05  -0.126995876621E+05
 KINETIC ENERGY [hartree]     =          0.349955111278E+02   0.345959086509E+02
 TEMPERATURE [K]              =                     263.121              260.117
 PRESSURE [bar]               =          0.231848648855E+05   0.214232791613E+05
 BAROSTAT TEMP[K]             =          0.390910617783E+06   0.106852880672E+06
 VOLUME[bohr^3]               =          0.207487938591E+07   0.207238374929E+07
 CELL LNTHS[bohr]             =    0.9107941E+02   0.1980294E+03   0.1150384E+03
 AVE. CELL LNTHS[bohr]        =    0.9104287E+02   0.1979500E+03   0.1149923E+03
 *******************************************************************************


 ENERGY| Total FORCE_EVAL ( FIST ) energy (a.u.):         -12700.838645619327508


 *******************************************************************************
 ENSEMBLE TYPE                =                                            NPT_I
 STEP NUMBER                  =                                               14
 TIME [fs]                    =                                        28.000000
 CONSERVED QUANTITY [hartree] =                              -0.126649918001E+05

                                              INSTANTANEOUS             AVERAGES
 CPU TIME [s]                 =                        0.19                 0.24
 ENERGY DRIFT PER ATOM [K]    =         -0.360839326259E+01  -0.161042732131E+01
 POTENTIAL ENERGY[hartree]    =         -0.127008386456E+05  -0.126996770181E+05
 KINETIC ENERGY [hartree]     =          0.350974284221E+02   0.346317314917E+02
 TEMPERATURE [K]              =                     263.887              260.386
 PRESSURE [bar]               =          0.705765225619E+04   0.203971629538E+05
 BAROSTAT TEMP[K]             =          0.425970140433E+06   0.129646970655E+06
 VOLUME[bohr^3]               =          0.207649267630E+07   0.207267724408E+07
 CELL LNTHS[bohr]             =    0.9110301E+02   0.1980808E+03   0.1150682E+03
 AVE. CELL LNTHS[bohr]        =    0.9104717E+02   0.1979593E+03   0.1149977E+03
 *******************************************************************************


 ENERGY| Total FORCE_EVAL ( FIST ) energy (a.u.):         -12697.897088803138104


 *******************************************************************************
 ENSEMBLE TYPE                =                                            NPT_I
 STEP NUMBER                  =                                               15
 TIME [fs]                    =                                        30.000000
 CONSERVED QUANTITY [hartree] =                              -0.126649223813E+05

                                              INSTANTANEOUS             AVERAGES
 CPU TIME [s]                 =                        0.29                 0.25
 ENERGY DRIFT PER ATOM [K]    =         -0.282551079744E+01  -0.169143288639E+01
 POTENTIAL ENERGY[hartree]    =         -0.126978970888E+05  -0.126995583561E+05
 KINETIC ENERGY [hartree]     =          0.322285609062E+02   0.344715201193E+02
 TEMPERATURE [K]              =                     242.317              259.181
 PRESSURE [bar]               =         -0.824248064856E+04   0.184878533803E+05
 BAROSTAT TEMP[K]             =          0.402721098148E+06   0.147851912488E+06
 VOLUME[bohr^3]               =          0.207811697909E+07   0.207303989308E+07
 CELL LNTHS[bohr]             =    0.9112675E+02   0.1981324E+03   0.1150982E+03
 AVE. CELL LNTHS[bohr]        =    0.9105247E+02   0.1979709E+03   0.1150044E+03
 *******************************************************************************


 ENERGY| Total FORCE_EVAL ( FIST ) energy (a.u.):         -12692.792589264654453


 *******************************************************************************
 ENSEMBLE TYPE                =                                            NPT_I
 STEP NUMBER                  =                                               16
 TIME [fs]                    =                                        32.000000
 CONSERVED QUANTITY [hartree] =                              -0.126648020901E+05

                                              INSTANTANEOUS             AVERAGES
 CPU TIME [s]                 =                        0.34                 0.25
 ENERGY DRIFT PER ATOM [K]    =         -0.146890729118E+01  -0.167752503669E+01
 POTENTIAL ENERGY[hartree]    =         -0.126927925893E+05  -0.126991354957E+05
 KINETIC ENERGY [hartree]     =          0.273198841112E+02   0.340245428688E+02
 TEMPERATURE [K]              =                     205.410              255.821
 PRESSURE [bar]               =         -0.212588694768E+05   0.160036832017E+05
 BAROSTAT TEMP[K]             =          0.332464368109E+06   0.159390190964E+06
 VOLUME[bohr^3]               =          0.207964329778E+07   0.207345260587E+07
 CELL LNTHS[bohr]             =    0.9114906E+02   0.1981809E+03   0.1151264E+03
 AVE. CELL LNTHS[bohr]        =    0.9105851E+02   0.1979840E+03   0.1150120E+03
 *******************************************************************************


 ENERGY| Total FORCE_EVAL ( FIST ) energy (a.u.):         -12687.319076195268281


 *******************************************************************************
 ENSEMBLE TYPE                =                                            NPT_I
 STEP NUMBER                  =                                               17
 TIME [fs]                    =                                        34.000000
 CONSERVED QUANTITY [hartree] =                              -0.126646760789E+05

                                              INSTANTANEOUS             AVERAGES
 CPU TIME [s]                 =                        0.26                 0.25
 ENERGY DRIFT PER ATOM [K]    =         -0.477949580176E-01  -0.158165856147E+01
 POTENTIAL ENERGY[hartree]    =         -0.126873190762E+05  -0.126984404122E+05
 KINETIC ENERGY [hartree]     =          0.220899158607E+02   0.333225059860E+02
 TEMPERATURE [K]              =                     166.088              250.542
 PRESSURE [bar]               =         -0.309693083113E+05   0.132405660539E+05
 BAROSTAT TEMP[K]             =          0.238349243353E+06   0.164034841105E+06
 VOLUME[bohr^3]               =          0.208098211400E+07   0.207389551812E+07
 CELL LNTHS[bohr]             =    0.9116861E+02   0.1982234E+03   0.1151511E+03
 AVE. CELL LNTHS[bohr]        =    0.9106498E+02   0.1979981E+03   0.1150202E+03
 *******************************************************************************


 ENERGY| Total FORCE_EVAL ( FIST ) energy (a.u.):         -12683.393028616594165


 *******************************************************************************
 ENSEMBLE TYPE                =                                            NPT_I
 STEP NUMBER                  =                                               18
 TIME [fs]                    =                                        36.000000
 CONSERVED QUANTITY [hartree] =                              -0.126645873570E+05

                                              INSTANTANEOUS             AVERAGES
 CPU TIME [s]                 =                        0.36                 0.26
 ENERGY DRIFT PER ATOM [K]    =          0.952781573691E+00  -0.144085633174E+01
 POTENTIAL ENERGY[hartree]    =         -0.126833930286E+05  -0.126976044464E+05
 KINETIC ENERGY [hartree]     =          0.183769934459E+02   0.324921997338E+02
 TEMPERATURE [K]              =                     138.171              244.300
 PRESSURE [bar]               =         -0.367446863038E+05   0.104636075896E+05
 BAROSTAT TEMP[K]             =          0.145326134324E+06   0.162995468506E+06
 VOLUME[bohr^3]               =          0.208207123525E+07   0.207434972462E+07
 CELL LNTHS[bohr]             =    0.9118452E+02   0.1982580E+03   0.1151712E+03
 AVE. CELL LNTHS[bohr]        =    0.9107163E+02   0.1980125E+03   0.1150286E+03
 *******************************************************************************


 ENERGY| Total FORCE_EVAL ( FIST ) energy (a.u.):         -12682.375177351461389


 *******************************************************************************
 ENSEMBLE TYPE                =                                            NPT_I
 STEP NUMBER                  =                                               19
 TIME [fs]                    =                                        38.000000
 CONSERVED QUANTITY [hartree] =                              -0.126645641743E+05

                                              INSTANTANEOUS             AVERAGES
 CPU TIME [s]                 =                        0.30                 0.26
 ENERGY DRIFT PER ATOM [K]    =          0.121422793656E+01  -0.130111505446E+01
 POTENTIAL ENERGY[hartree]    =         -0.126823751774E+05  -0.126968029060E+05
 KINETIC ENERGY [hartree]     =          0.174852375189E+02   0.317023596172E+02
 TEMPERATURE [K]              =                     131.466              238.361
 PRESSURE [bar]               =         -0.382634022678E+05   0.789902812340E+04
 BAROSTAT TEMP[K]             =          0.718572439336E+05   0.158198719844E+06
 VOLUME[bohr^3]               =          0.208287928836E+07   0.207479864903E+07
 CELL LNTHS[bohr]             =    0.9119631E+02   0.1982836E+03   0.1151861E+03
 AVE. CELL LNTHS[bohr]        =    0.9107819E+02   0.1980268E+03   0.1150369E+03
 *******************************************************************************


 ENERGY| Total FORCE_EVAL ( FIST ) energy (a.u.):         -12684.619533158942431


 *******************************************************************************
 ENSEMBLE TYPE                =                                            NPT_I
 STEP NUMBER                  =                                               20
 TIME [fs]                    =                                        40.000000
 CONSERVED QUANTITY [hartree] =                              -0.126646142476E+05

                                              INSTANTANEOUS             AVERAGES
 CPU TIME [s]                 =                        0.33                 0.26
 ENERGY DRIFT PER ATOM [K]    =          0.649517724715E+00  -0.120358341550E+01
 POTENTIAL ENERGY[hartree]    =         -0.126846195332E+05  -0.126961937373E+05
 KINETIC ENERGY [hartree]     =          0.197464050472E+02   0.311045618887E+02
 TEMPERATURE [K]              =                     148.468              233.866
 PRESSURE [bar]               =         -0.354425155792E+05   0.573195093826E+04
 BAROSTAT TEMP[K]             =          0.258743504999E+05   0.151582501377E+06
 VOLUME[bohr^3]               =          0.208340599013E+07   0.207522901608E+07
 CELL LNTHS[bohr]             =    0.9120400E+02   0.1983003E+03   0.1151958E+03
 AVE. CELL LNTHS[bohr]        =    0.9108448E+02   0.1980405E+03   0.1150448E+03
 *******************************************************************************


 ENERGY| Total FORCE_EVAL ( FIST ) energy (a.u.):         -12689.351106405591054


 *******************************************************************************
 ENSEMBLE TYPE                =                                            NPT_I
 STEP NUMBER                  =                                               21
 TIME [fs]                    =                                        42.000000
 CONSERVED QUANTITY [hartree] =                              -0.126647232303E+05

                                              INSTANTANEOUS             AVERAGES
 CPU TIME [s]                 =                        0.49                 0.27
 ENERGY DRIFT PER ATOM [K]    =         -0.579552815253E+00  -0.117386767263E+01
 POTENTIAL ENERGY[hartree]    =         -0.126893511064E+05  -0.126958678977E+05
 KINETIC ENERGY [hartree]     =          0.244005316872E+02   0.307853223553E+02
 TEMPERATURE [K]              =                     183.461              231.466
 PRESSURE [bar]               =         -0.284237986779E+05   0.410548667083E+04
 BAROSTAT TEMP[K]             =          0.501060141580E+04   0.144602887093E+06
 VOLUME[bohr^3]               =          0.208368050985E+07   0.207563146817E+07
 CELL LNTHS[bohr]             =    0.9120800E+02   0.1983090E+03   0.1152008E+03
 AVE. CELL LNTHS[bohr]        =    0.9109036E+02   0.1980533E+03   0.1150523E+03
 *******************************************************************************


 ENERGY| Total FORCE_EVAL ( FIST ) energy (a.u.):         -12694.899564965240643


 *******************************************************************************
 ENSEMBLE TYPE                =                                            NPT_I
 STEP NUMBER                  =                                               22
 TIME [fs]                    =                                        44.000000
 CONSERVED QUANTITY [hartree] =                              -0.126648562734E+05

                                              INSTANTANEOUS             AVERAGES
 CPU TIME [s]                 =                        0.17                 0.27
 ENERGY DRIFT PER ATOM [K]    =         -0.207996842383E+01  -0.121505407042E+01
 POTENTIAL ENERGY[hartree]    =         -0.126948995650E+05  -0.126958238826E+05
 KINETIC ENERGY [hartree]     =          0.298241323205E+02   0.307416318992E+02
 TEMPERATURE [K]              =                     224.239              231.137
 PRESSURE [bar]               =         -0.176233898270E+05   0.311781046638E+04
 BAROSTAT TEMP[K]             =          0.586543846654E+02   0.138032694697E+06
 VOLUME[bohr^3]               =          0.208375864028E+07   0.207600088508E+07
 CELL LNTHS[bohr]             =    0.9120914E+02   0.1983115E+03   0.1152023E+03
 AVE. CELL LNTHS[bohr]        =    0.9109576E+02   0.1980650E+03   0.1150591E+03
 *******************************************************************************


 ENERGY| Total FORCE_EVAL ( FIST ) energy (a.u.):         -12699.256454282198320


 *******************************************************************************
 ENSEMBLE TYPE                =                                            NPT_I
 STEP NUMBER                  =                                               23
 TIME [fs]                    =                                        46.000000
 CONSERVED QUANTITY [hartree] =                              -0.126649649902E+05

                                              INSTANTANEOUS             AVERAGES
 CPU TIME [s]                 =                        0.24                 0.27
 ENERGY DRIFT PER ATOM [K]    =         -0.330603919824E+01  -0.130596646728E+01
 POTENTIAL ENERGY[hartree]    =         -0.126992564543E+05  -0.126959731249E+05
 KINETIC ENERGY [hartree]     =          0.340725322166E+02   0.308864536521E+02
 TEMPERATURE [K]              =                     256.182              232.226
 PRESSURE [bar]               =         -0.382663426772E+04   0.281587808664E+04
 BAROSTAT TEMP[K]             =          0.430407093192E+03   0.132049986540E+06
 VOLUME[bohr^3]               =          0.208371866750E+07   0.207633644084E+07
 CELL LNTHS[bohr]             =    0.9120856E+02   0.1983103E+03   0.1152015E+03
 AVE. CELL LNTHS[bohr]        =    0.9110066E+02   0.1980757E+03   0.1150653E+03
 *******************************************************************************


 ENERGY| Total FORCE_EVAL ( FIST ) energy (a.u.):         -12700.832565997154234


 *******************************************************************************
 ENSEMBLE TYPE                =                                            NPT_I
 STEP NUMBER                  =                                               24
 TIME [fs]                    =                                        48.000000
 CONSERVED QUANTITY [hartree] =                              -0.126650030830E+05

                                              INSTANTANEOUS             AVERAGES
 CPU TIME [s]                 =                        0.22                 0.27
 ENERGY DRIFT PER ATOM [K]    =         -0.373563699826E+01  -0.140720273940E+01
 POTENTIAL ENERGY[hartree]    =         -0.127008325660E+05  -0.126961756016E+05
 KINETIC ENERGY [hartree]     =          0.356120209423E+02   0.310833522892E+02
 TEMPERATURE [K]              =                     267.757              233.707
 PRESSURE [bar]               =          0.117213430619E+05   0.318693912727E+04
 BAROSTAT TEMP[K]             =          0.921167891973E+02   0.126551741967E+06
 VOLUME[bohr^3]               =          0.208365527621E+07   0.207664139231E+07
 CELL LNTHS[bohr]             =    0.9120763E+02   0.1983082E+03   0.1152004E+03
 AVE. CELL LNTHS[bohr]        =    0.9110512E+02   0.1980853E+03   0.1150709E+03
 *******************************************************************************


 ENERGY| Total FORCE_EVAL ( FIST ) energy (a.u.):         -12699.161470763865509


 *******************************************************************************
 ENSEMBLE TYPE                =                                            NPT_I
 STEP NUMBER                  =                                               25
 TIME [fs]                    =                                        50.000000
 CONSERVED QUANTITY [hartree] =                              -0.126649489218E+05

                                              INSTANTANEOUS             AVERAGES
 CPU TIME [s]                 =                        0.19                 0.26
 ENERGY DRIFT PER ATOM [K]    =         -0.312482558116E+01  -0.147590765307E+01
 POTENTIAL ENERGY[hartree]    =         -0.126991614708E+05  -0.126962950363E+05
 KINETIC ENERGY [hartree]     =          0.339933319230E+02   0.311997514745E+02
 TEMPERATURE [K]              =                     255.586              234.582
 PRESSURE [bar]               =          0.273027707612E+05   0.415157239263E+04
 BAROSTAT TEMP[K]             =          0.175712280040E+04   0.121559957201E+06
 VOLUME[bohr^3]               =          0.208367084899E+07   0.207692257058E+07
 CELL LNTHS[bohr]             =    0.9120786E+02   0.1983087E+03   0.1152007E+03
 AVE. CELL LNTHS[bohr]        =    0.9110923E+02   0.1980943E+03   0.1150761E+03
 *******************************************************************************


 ENERGY| Total FORCE_EVAL ( FIST ) energy (a.u.):         -12695.203919696950834


 *******************************************************************************
 ENSEMBLE TYPE                =                                            NPT_I
 STEP NUMBER                  =                                               26
 TIME [fs]                    =                                        52.000000
 CONSERVED QUANTITY [hartree] =                              -0.126648234199E+05

                                              INSTANTANEOUS             AVERAGES
 CPU TIME [s]                 =                        0.25                 0.26
 ENERGY DRIFT PER ATOM [K]    =         -0.170945682109E+01  -0.148489031338E+01
 POTENTIAL ENERGY[hartree]    =         -0.126952039197E+05  -0.126962530703E+05
 KINETIC ENERGY [hartree]     =          0.301372312150E+02   0.311588853107E+02
 TEMPERATURE [K]              =                     226.593              234.275
 PRESSURE [bar]               =          0.408694519555E+05   0.556379852966E+04
 BAROSTAT TEMP[K]             =          0.168267041832E+05   0.117531755162E+06
 VOLUME[bohr^3]               =          0.208386413075E+07   0.207718955366E+07
 CELL LNTHS[bohr]             =    0.9121068E+02   0.1983149E+03   0.1152042E+03
 AVE. CELL LNTHS[bohr]        =    0.9111313E+02   0.1981028E+03   0.1150810E+03
 *******************************************************************************


 ENERGY| Total FORCE_EVAL ( FIST ) energy (a.u.):         -12690.995833659406344


 *******************************************************************************
 ENSEMBLE TYPE                =                                            NPT_I
 STEP NUMBER                  =                                               27
 TIME [fs]                    =                                        54.000000
 CONSERVED QUANTITY [hartree] =                              -0.126646869199E+05

                                              INSTANTANEOUS             AVERAGES
 CPU TIME [s]                 =                        0.25                 0.26
 ENERGY DRIFT PER ATOM [K]    =         -0.170055523804E+00  -0.143619272858E+01
 POTENTIAL ENERGY[hartree]    =         -0.126909958337E+05  -0.126960583579E+05
 KINETIC ENERGY [hartree]     =          0.259938289504E+02   0.309675869270E+02
 TEMPERATURE [K]              =                     195.440              232.836
 PRESSURE [bar]               =          0.503685461203E+05   0.722323362561E+04
 BAROSTAT TEMP[K]             =          0.597945826494E+05   0.115393341365E+06
 VOLUME[bohr^3]               =          0.208431721778E+07   0.207745354122E+07
 CELL LNTHS[bohr]             =    0.9121729E+02   0.1983292E+03   0.1152126E+03
 AVE. CELL LNTHS[bohr]        =    0.9111699E+02   0.1981112E+03   0.1150859E+03
 *******************************************************************************


 ENERGY| Total FORCE_EVAL ( FIST ) energy (a.u.):         -12688.704914894929971


 *******************************************************************************
 ENSEMBLE TYPE                =                                            NPT_I
 STEP NUMBER                  =                                               28
 TIME [fs]                    =                                        56.000000
 CONSERVED QUANTITY [hartree] =                              -0.126646097712E+05

                                              INSTANTANEOUS             AVERAGES
 CPU TIME [s]                 =                        0.24                 0.26
 ENERGY DRIFT PER ATOM [K]    =          0.700001519427E+00  -0.135990007687E+01
 POTENTIAL ENERGY[hartree]    =         -0.126887049149E+05  -0.126957957349E+05
 KINETIC ENERGY [hartree]     =          0.236437424732E+02   0.307060210536E+02
 TEMPERATURE [K]              =                     177.771              230.870
 PRESSURE [bar]               =          0.541894370536E+05   0.890059803375E+04
 BAROSTAT TEMP[K]             =          0.138754723557E+06   0.116227676443E+06
 VOLUME[bohr^3]               =          0.208508279083E+07   0.207772601442E+07
 CELL LNTHS[bohr]             =    0.9122846E+02   0.1983535E+03   0.1152267E+03
 AVE. CELL LNTHS[bohr]        =    0.9112097E+02   0.1981198E+03   0.1150909E+03
 *******************************************************************************


 ENERGY| Total FORCE_EVAL ( FIST ) energy (a.u.):         -12689.548740518597697


 *******************************************************************************
 ENSEMBLE TYPE                =                                            NPT_I
 STEP NUMBER                  =                                               29
 TIME [fs]                    =                                        58.000000
 CONSERVED QUANTITY [hartree] =                              -0.126646325036E+05

                                              INSTANTANEOUS             AVERAGES
 CPU TIME [s]                 =                        0.17                 0.26
 ENERGY DRIFT PER ATOM [K]    =          0.443632859039E+00  -0.129770928597E+01
 POTENTIAL ENERGY[hartree]    =         -0.126895487405E+05  -0.126955803213E+05
 KINETIC ENERGY [hartree]     =          0.242703475429E+02   0.304841012774E+02
 TEMPERATURE [K]              =                     182.482              229.201
 PRESSURE [bar]               =          0.515815902847E+05   0.103723563872E+05
 BAROSTAT TEMP[K]             =          0.246821530661E+06   0.120730912795E+06
 VOLUME[bohr^3]               =          0.208617410400E+07   0.207801732786E+07
 CELL LNTHS[bohr]             =    0.9124437E+02   0.1983881E+03   0.1152468E+03
 AVE. CELL LNTHS[bohr]        =    0.9112523E+02   0.1981291E+03   0.1150963E+03
 *******************************************************************************


 ENERGY| Total FORCE_EVAL ( FIST ) energy (a.u.):         -12693.174847189597131


 *******************************************************************************
 ENSEMBLE TYPE                =                                            NPT_I
 STEP NUMBER                  =                                               30
 TIME [fs]                    =                                        60.000000
 CONSERVED QUANTITY [hartree] =                              -0.126647422823E+05

                                              INSTANTANEOUS             AVERAGES
 CPU TIME [s]                 =                        0.29                 0.26
 ENERGY DRIFT PER ATOM [K]    =         -0.794414266918E+00  -0.128093278534E+01
 POTENTIAL ENERGY[hartree]    =         -0.126931748472E+05  -0.126955001388E+05
 KINETIC ENERGY [hartree]     =          0.275675667470E+02   0.303868834597E+02
 TEMPERATURE [K]              =                     207.273              228.470
 PRESSURE [bar]               =          0.428685967053E+05   0.114555643978E+05
 BAROSTAT TEMP[K]             =          0.360259194492E+06   0.128715188852E+06
 VOLUME[bohr^3]               =          0.208756027855E+07   0.207833542621E+07
 CELL LNTHS[bohr]             =    0.9126458E+02   0.1984320E+03   0.1152723E+03
 AVE. CELL LNTHS[bohr]        =    0.9112987E+02   0.1981392E+03   0.1151022E+03
 *******************************************************************************


 ENERGY| Total FORCE_EVAL ( FIST ) energy (a.u.):         -12697.857442406511836


 *******************************************************************************
 ENSEMBLE TYPE                =                                            NPT_I
 STEP NUMBER                  =                                               31
 TIME [fs]                    =                                        62.000000
 CONSERVED QUANTITY [hartree] =                              -0.126648812986E+05

                                              INSTANTANEOUS             AVERAGES
 CPU TIME [s]                 =                        0.19                 0.26
 ENERGY DRIFT PER ATOM [K]    =         -0.236219332161E+01  -0.131581215748E+01
 POTENTIAL ENERGY[hartree]    =         -0.126978574424E+05  -0.126955761809E+05
 KINETIC ENERGY [hartree]     =          0.319177542371E+02   0.304362663880E+02
 TEMPERATURE [K]              =                     239.980              228.842
 PRESSURE [bar]               =          0.293661998854E+05   0.120333268329E+05
 BAROSTAT TEMP[K]             =          0.446218736961E+06   0.138957238791E+06
 VOLUME[bohr^3]               =          0.208916876899E+07   0.207868488888E+07
 CELL LNTHS[bohr]             =    0.9128801E+02   0.1984830E+03   0.1153019E+03
 AVE. CELL LNTHS[bohr]        =    0.9113497E+02   0.1981503E+03   0.1151086E+03
 *******************************************************************************


 ENERGY| Total FORCE_EVAL ( FIST ) energy (a.u.):         -12701.385502754867048


 *******************************************************************************
 ENSEMBLE TYPE                =                                            NPT_I
 STEP NUMBER                  =                                               32
 TIME [fs]                    =                                        64.000000
 CONSERVED QUANTITY [hartree] =                              -0.126649804523E+05

                                              INSTANTANEOUS             AVERAGES
 CPU TIME [s]                 =                        0.17                 0.25
 ENERGY DRIFT PER ATOM [K]    =         -0.348041586020E+01  -0.138345602319E+01
 POTENTIAL ENERGY[hartree]    =         -0.127013855028E+05  -0.126957577222E+05
 KINETIC ENERGY [hartree]     =          0.352257256205E+02   0.305859369890E+02
 TEMPERATURE [K]              =                     264.852              229.967
 PRESSURE [bar]               =          0.130393242597E+05   0.120647642525E+05
 BAROSTAT TEMP[K]             =          0.477026643169E+06   0.149521907678E+06
 VOLUME[bohr^3]               =          0.209089537147E+07   0.207906646647E+07
 CELL LNTHS[bohr]             =    0.9131315E+02   0.1985377E+03   0.1153337E+03
 AVE. CELL LNTHS[bohr]        =    0.9114054E+02   0.1981624E+03   0.1151156E+03
 *******************************************************************************


 ENERGY| Total FORCE_EVAL ( FIST ) energy (a.u.):         -12702.132876361851231


 *******************************************************************************
 ENSEMBLE TYPE                =                                            NPT_I
 STEP NUMBER                  =                                               33
 TIME [fs]                    =                                        66.000000
 CONSERVED QUANTITY [hartree] =                              -0.126649959448E+05

                                              INSTANTANEOUS             AVERAGES
 CPU TIME [s]                 =                        0.21                 0.25
 ENERGY DRIFT PER ATOM [K]    =         -0.365513482262E+01  -0.145229477468E+01
 POTENTIAL ENERGY[hartree]    =         -0.127021328764E+05  -0.126959509087E+05
 KINETIC ENERGY [hartree]     =          0.359330821738E+02   0.307479716916E+02
 TEMPERATURE [K]              =                     270.171              231.185
 PRESSURE [bar]               =         -0.395759530154E+04   0.115792382054E+05
 BAROSTAT TEMP[K]             =          0.442946613788E+06   0.158413565439E+06
 VOLUME[bohr^3]               =          0.209261996251E+07   0.207947717847E+07
 CELL LNTHS[bohr]             =    0.9133825E+02   0.1985922E+03   0.1153654E+03
 AVE. CELL LNTHS[bohr]        =    0.9114653E+02   0.1981754E+03   0.1151232E+03
 *******************************************************************************


 ENERGY| Total FORCE_EVAL ( FIST ) energy (a.u.):         -12699.751871294560260


 *******************************************************************************
 ENSEMBLE TYPE                =                                            NPT_I
 STEP NUMBER                  =                                               34
 TIME [fs]                    =                                        68.000000
 CONSERVED QUANTITY [hartree] =                              -0.126649270268E+05

                                              INSTANTANEOUS             AVERAGES
 CPU TIME [s]                 =                        0.18                 0.25
 ENERGY DRIFT PER ATOM [K]    =         -0.287790156061E+01  -0.149422438604E+01
 POTENTIAL ENERGY[hartree]    =         -0.126997518713E+05  -0.126960627017E+05
 KINETIC ENERGY [hartree]     =          0.336860338188E+02   0.308343852836E+02
 TEMPERATURE [K]              =                     253.276              231.835
 PRESSURE [bar]               =         -0.196854651216E+05   0.106596881076E+05
 BAROSTAT TEMP[K]             =          0.355878233654E+06   0.164221349798E+06
 VOLUME[bohr^3]               =          0.209422416595E+07   0.207991091339E+07
 CELL LNTHS[bohr]             =    0.9136159E+02   0.1986430E+03   0.1153948E+03
 AVE. CELL LNTHS[bohr]        =    0.9115286E+02   0.1981891E+03   0.1151312E+03
 *******************************************************************************


 ENERGY| Total FORCE_EVAL ( FIST ) energy (a.u.):         -12695.210557108124704


 *******************************************************************************
 ENSEMBLE TYPE                =                                            NPT_I
 STEP NUMBER                  =                                               35
 TIME [fs]                    =                                        70.000000
 CONSERVED QUANTITY [hartree] =                              -0.126648085766E+05

                                              INSTANTANEOUS             AVERAGES
 CPU TIME [s]                 =                        0.30                 0.25
 ENERGY DRIFT PER ATOM [K]    =         -0.154205894762E+01  -0.149559108779E+01
 POTENTIAL ENERGY[hartree]    =         -0.126952105571E+05  -0.126960383547E+05
 KINETIC ENERGY [hartree]     =          0.293857274263E+02   0.307929950591E+02
 TEMPERATURE [K]              =                     220.943              231.524
 PRESSURE [bar]               =         -0.326579556821E+05   0.942204114214E+04
 BAROSTAT TEMP[K]             =          0.242733511293E+06   0.166464554412E+06
 VOLUME[bohr^3]               =          0.209560662220E+07   0.208035936222E+07
 CELL LNTHS[bohr]             =    0.9138168E+02   0.1986867E+03   0.1154202E+03
 AVE. CELL LNTHS[bohr]        =    0.9115940E+02   0.1982034E+03   0.1151395E+03
 *******************************************************************************


 ENERGY| Total FORCE_EVAL ( FIST ) energy (a.u.):         -12690.273194827876068


 *******************************************************************************
 ENSEMBLE TYPE                =                                            NPT_I
 STEP NUMBER                  =                                               36
 TIME [fs]                    =                                        72.000000
 CONSERVED QUANTITY [hartree] =                              -0.126646892687E+05

                                              INSTANTANEOUS             AVERAGES
 CPU TIME [s]                 =                        0.27                 0.25
 ENERGY DRIFT PER ATOM [K]    =         -0.196544144227E+00  -0.145950645047E+01
 POTENTIAL ENERGY[hartree]    =         -0.126902731948E+05  -0.126958782114E+05
 KINETIC ENERGY [hartree]     =          0.247047037964E+02   0.306238758574E+02
 TEMPERATURE [K]              =                     185.748              230.252
 PRESSURE [bar]               =         -0.418985334062E+05   0.799646962691E+04
 BAROSTAT TEMP[K]             =          0.133694440890E+06   0.165554273481E+06
 VOLUME[bohr^3]               =          0.209669297742E+07   0.208081307375E+07
 CELL LNTHS[bohr]             =    0.9139747E+02   0.1987210E+03   0.1154402E+03
 AVE. CELL LNTHS[bohr]        =    0.9116601E+02   0.1982177E+03   0.1151478E+03
 *******************************************************************************


 ENERGY| Total FORCE_EVAL ( FIST ) energy (a.u.):         -12686.750062937207986


 *******************************************************************************
 ENSEMBLE TYPE                =                                            NPT_I
 STEP NUMBER                  =                                               37
 TIME [fs]                    =                                        74.000000
 CONSERVED QUANTITY [hartree] =                              -0.126646108822E+05

                                              INSTANTANEOUS             AVERAGES
 CPU TIME [s]                 =                        0.23                 0.25
 ENERGY DRIFT PER ATOM [K]    =          0.687472230100E+00  -0.140147999965E+01
 POTENTIAL ENERGY[hartree]    =         -0.126867500629E+05  -0.126956315047E+05
 KINETIC ENERGY [hartree]     =          0.213726374937E+02   0.303738423881E+02
 TEMPERATURE [K]              =                     160.695              228.372
 PRESSURE [bar]               =         -0.468729561199E+05   0.651351217429E+04
 BAROSTAT TEMP[K]             =          0.519535205087E+05   0.162483982860E+06
 VOLUME[bohr^3]               =          0.209744016831E+07   0.208126245468E+07
 CELL LNTHS[bohr]             =    0.9140833E+02   0.1987446E+03   0.1154539E+03
 AVE. CELL LNTHS[bohr]        =    0.9117256E+02   0.1982320E+03   0.1151561E+03
 *******************************************************************************


 ENERGY| Total FORCE_EVAL ( FIST ) energy (a.u.):         -12685.839619177968416


 *******************************************************************************
 ENSEMBLE TYPE                =                                            NPT_I
 STEP NUMBER                  =                                               38
 TIME [fs]                    =                                        76.000000
 CONSERVED QUANTITY [hartree] =                              -0.126645967551E+05

                                              INSTANTANEOUS             AVERAGES
 CPU TIME [s]                 =                        0.22                 0.25
 ENERGY DRIFT PER ATOM [K]    =          0.846792745196E+00  -0.134231492741E+01
 POTENTIAL ENERGY[hartree]    =         -0.126858396192E+05  -0.126953738235E+05
 KINETIC ENERGY [hartree]     =          0.205408603921E+02   0.301150797040E+02
 TEMPERATURE [K]              =                     154.441              226.427
 PRESSURE [bar]               =         -0.473835161234E+05   0.509516932435E+04
 BAROSTAT TEMP[K]             =          0.838644945707E+04   0.158428784613E+06
 VOLUME[bohr^3]               =          0.209783652437E+07   0.208169861441E+07
 CELL LNTHS[bohr]             =    0.9141409E+02   0.1987571E+03   0.1154611E+03
 AVE. CELL LNTHS[bohr]        =    0.9117891E+02   0.1982458E+03   0.1151641E+03
 *******************************************************************************


 ENERGY| Total FORCE_EVAL ( FIST ) energy (a.u.):         -12687.754552524285828


 *******************************************************************************
 ENSEMBLE TYPE                =                                            NPT_I
 STEP NUMBER                  =                                               39
 TIME [fs]                    =                                        78.000000
 CONSERVED QUANTITY [hartree] =                              -0.126646485425E+05

                                              INSTANTANEOUS             AVERAGES
 CPU TIME [s]                 =                        0.19                 0.25
 ENERGY DRIFT PER ATOM [K]    =          0.262752179840E+00  -0.130115936056E+01
 POTENTIAL ENERGY[hartree]    =         -0.126877545525E+05  -0.126951784575E+05
 KINETIC ENERGY [hartree]     =          0.224160829308E+02   0.299176695303E+02
 TEMPERATURE [K]              =                     168.540              224.942
 PRESSURE [bar]               =         -0.434877614240E+05   0.384945315132E+04
 BAROSTAT TEMP[K]             =          0.104886668254E+04   0.154393402102E+06
 VOLUME[bohr^3]               =          0.209789972581E+07   0.208211402752E+07
 CELL LNTHS[bohr]             =    0.9141500E+02   0.1987591E+03   0.1154623E+03
 AVE. CELL LNTHS[bohr]        =    0.9118497E+02   0.1982590E+03   0.1151718E+03
 *******************************************************************************


 ENERGY| Total FORCE_EVAL ( FIST ) energy (a.u.):         -12691.693412415381317


 *******************************************************************************
 ENSEMBLE TYPE                =                                            NPT_I
 STEP NUMBER                  =                                               40
 TIME [fs]                    =                                        80.000000
 CONSERVED QUANTITY [hartree] =                              -0.126647475816E+05

                                              INSTANTANEOUS             AVERAGES
 CPU TIME [s]                 =                        0.21                 0.25
 ENERGY DRIFT PER ATOM [K]    =         -0.854177667555E+00  -0.128998481824E+01
 POTENTIAL ENERGY[hartree]    =         -0.126916934124E+05  -0.126950913314E+05
 KINETIC ENERGY [hartree]     =          0.262289839054E+02   0.298254523897E+02
 TEMPERATURE [K]              =                     197.208              224.249
 PRESSURE [bar]               =         -0.354770133080E+05   0.286629148984E+04
 BAROSTAT TEMP[K]             =          0.179849309315E+05   0.150983190322E+06
 VOLUME[bohr^3]               =          0.209767400089E+07   0.208250302686E+07
 CELL LNTHS[bohr]             =    0.9141172E+02   0.1987520E+03   0.1154582E+03
 AVE. CELL LNTHS[bohr]        =    0.9119064E+02   0.1982713E+03   0.1151789E+03
 *******************************************************************************


 ENERGY| Total FORCE_EVAL ( FIST ) energy (a.u.):         -12696.138993808999658


 *******************************************************************************
 ENSEMBLE TYPE                =                                            NPT_I
 STEP NUMBER                  =                                               41
 TIME [fs]                    =                                        82.000000
 CONSERVED QUANTITY [hartree] =                              -0.126648592753E+05

                                              INSTANTANEOUS             AVERAGES
 CPU TIME [s]                 =                        0.43                 0.25
 ENERGY DRIFT PER ATOM [K]    =         -0.211382204003E+01  -0.131007840901E+01
 POTENTIAL ENERGY[hartree]    =         -0.126961389938E+05  -0.126951168842E+05
 KINETIC ENERGY [hartree]     =          0.305215985919E+02   0.298424315653E+02
 TEMPERATURE [K]              =                     229.483              224.377
 PRESSURE [bar]               =         -0.239150972658E+05   0.221308688604E+04
 BAROSTAT TEMP[K]             =          0.421120763262E+05   0.148327797298E+06
 VOLUME[bohr^3]               =          0.209722683869E+07   0.208286214422E+07
 CELL LNTHS[bohr]             =    0.9140523E+02   0.1987379E+03   0.1154500E+03
 AVE. CELL LNTHS[bohr]        =    0.9119587E+02   0.1982827E+03   0.1151855E+03
 *******************************************************************************


 ENERGY| Total FORCE_EVAL ( FIST ) energy (a.u.):         -12699.407946735269434


 *******************************************************************************
 ENSEMBLE TYPE                =                                            NPT_I
 STEP NUMBER                  =                                               42
 TIME [fs]                    =                                        84.000000
 CONSERVED QUANTITY [hartree] =                              -0.126649417434E+05

                                              INSTANTANEOUS             AVERAGES
 CPU TIME [s]                 =                        0.25                 0.25
 ENERGY DRIFT PER ATOM [K]    =         -0.304387024677E+01  -0.135135916705E+01
 POTENTIAL ENERGY[hartree]    =         -0.126994079467E+05  -0.126952190523E+05
 KINETIC ENERGY [hartree]     =          0.336783793076E+02   0.299337636544E+02
 TEMPERATURE [K]              =                     253.218              225.063
 PRESSURE [bar]               =         -0.971086163541E+04   0.192918334982E+04
 BAROSTAT TEMP[K]             =          0.573143936666E+05   0.146160811497E+06
 VOLUME[bohr^3]               =          0.209664462345E+07   0.208319029849E+07
 CELL LNTHS[bohr]             =    0.9139677E+02   0.1987195E+03   0.1154393E+03
 AVE. CELL LNTHS[bohr]        =    0.9120065E+02   0.1982931E+03   0.1151916E+03
 *******************************************************************************


 ENERGY| Total FORCE_EVAL ( FIST ) energy (a.u.):         -12700.305288192639637


 *******************************************************************************
 ENSEMBLE TYPE                =                                            NPT_I
 STEP NUMBER                  =                                               43
 TIME [fs]                    =                                        86.000000
 CONSERVED QUANTITY [hartree] =                              -0.126649599961E+05

                                              INSTANTANEOUS             AVERAGES
 CPU TIME [s]                 =                        0.18                 0.25
 ENERGY DRIFT PER ATOM [K]    =         -0.324971794082E+01  -0.139550704551E+01
 POTENTIAL ENERGY[hartree]    =         -0.127003052882E+05  -0.126953373369E+05
 KINETIC ENERGY [hartree]     =          0.345559356623E+02   0.300412560267E+02
 TEMPERATURE [K]              =                     259.816              225.872
 PRESSURE [bar]               =          0.582434700926E+04   0.201976855120E+04
 BAROSTAT TEMP[K]             =          0.544594699095E+05   0.144028222158E+06
 VOLUME[bohr^3]               =          0.209602632263E+07   0.208348881068E+07
 CELL LNTHS[bohr]             =    0.9138778E+02   0.1986999E+03   0.1154279E+03
 AVE. CELL LNTHS[bohr]        =    0.9120501E+02   0.1983025E+03   0.1151971E+03
 *******************************************************************************


 ENERGY| Total FORCE_EVAL ( FIST ) energy (a.u.):         -12698.655929810471207


 *******************************************************************************
 ENSEMBLE TYPE                =                                            NPT_I
 STEP NUMBER                  =                                               44
 TIME [fs]                    =                                        88.000000
 CONSERVED QUANTITY [hartree] =                              -0.126649027312E+05

                                              INSTANTANEOUS             AVERAGES
 CPU TIME [s]                 =                        0.21                 0.25
 ENERGY DRIFT PER ATOM [K]    =         -0.260390295005E+01  -0.142297058880E+01
 POTENTIAL ENERGY[hartree]    =         -0.126986559298E+05  -0.126954127594E+05
 KINETIC ENERGY [hartree]     =          0.329902127655E+02   0.301082777708E+02
 TEMPERATURE [K]              =                     248.044              226.375
 PRESSURE [bar]               =          0.209988046593E+05   0.245111028093E+04
 BAROSTAT TEMP[K]             =          0.352264202068E+05   0.141555453932E+06
 VOLUME[bohr^3]               =          0.209547473657E+07   0.208376121808E+07
 CELL LNTHS[bohr]             =    0.9137977E+02   0.1986825E+03   0.1154178E+03
 AVE. CELL LNTHS[bohr]        =    0.9120898E+02   0.1983112E+03   0.1152021E+03
 *******************************************************************************


 ENERGY| Total FORCE_EVAL ( FIST ) energy (a.u.):         -12695.455656419551815


 *******************************************************************************
 ENSEMBLE TYPE                =                                            NPT_I
 STEP NUMBER                  =                                               45
 TIME [fs]                    =                                        90.000000
 CONSERVED QUANTITY [hartree] =                              -0.126647931251E+05

                                              INSTANTANEOUS             AVERAGES
 CPU TIME [s]                 =                        0.20                 0.25
 ENERGY DRIFT PER ATOM [K]    =         -0.136780194911E+01  -0.142174461903E+01
 POTENTIAL ENERGY[hartree]    =         -0.126954556564E+05  -0.126954137127E+05
 KINETIC ENERGY [hartree]     =          0.299360895285E+02   0.301044513654E+02
 TEMPERATURE [K]              =                     225.081              226.347
 PRESSURE [bar]               =          0.338955391932E+05   0.314987536787E+04
 BAROSTAT TEMP[K]             =          0.115506484172E+05   0.138666458254E+06
 VOLUME[bohr^3]               =          0.209508565530E+07   0.208401287224E+07
 CELL LNTHS[bohr]             =    0.9137411E+02   0.1986702E+03   0.1154106E+03
 AVE. CELL LNTHS[bohr]        =    0.9121265E+02   0.1983191E+03   0.1152067E+03
 *******************************************************************************


 ENERGY| Total FORCE_EVAL ( FIST ) energy (a.u.):         -12692.486935707080193


 *******************************************************************************
 ENSEMBLE TYPE                =                                            NPT_I
 STEP NUMBER                  =                                               46
 TIME [fs]                    =                                        92.000000
 CONSERVED QUANTITY [hartree] =                              -0.126646837264E+05

                                              INSTANTANEOUS             AVERAGES
 CPU TIME [s]                 =                        0.18                 0.25
 ENERGY DRIFT PER ATOM [K]    =         -0.134040288205E+00  -0.139375104662E+01
 POTENTIAL ENERGY[hartree]    =         -0.126924869357E+05  -0.126953500871E+05
 KINETIC ENERGY [hartree]     =          0.270964094963E+02   0.300390591508E+02
 TEMPERATURE [K]              =                     203.730              225.855
 PRESSURE [bar]               =          0.426735256490E+05   0.400908515659E+04
 BAROSTAT TEMP[K]             =          0.532195643581E+01   0.135652085726E+06
 VOLUME[bohr^3]               =          0.209493617863E+07   0.208425033543E+07
 CELL LNTHS[bohr]             =    0.9137194E+02   0.1986655E+03   0.1154079E+03
 AVE. CELL LNTHS[bohr]        =    0.9121611E+02   0.1983267E+03   0.1152111E+03
 *******************************************************************************


 ENERGY| Total FORCE_EVAL ( FIST ) energy (a.u.):         -12691.491903607449785


[...]

                                              INSTANTANEOUS             AVERAGES
 CPU TIME [s]                 =                        3.17                 1.53
 ENERGY DRIFT PER ATOM [K]    =          0.801845850442E+00  -0.131975709088E+01
 POTENTIAL ENERGY[hartree]    =         -0.126890447756E+05  -0.126960004308E+05
 KINETIC ENERGY [hartree]     =          0.229869482830E+02   0.301800997715E+02
 TEMPERATURE [K]              =                     172.832              226.915
 PRESSURE [bar]               =         -0.380456516348E+05   0.793136732385E+03
 BAROSTAT TEMP[K]             =          0.652394462107E+02   0.852636515227E+05
 VOLUME[bohr^3]               =          0.209304009355E+07   0.209050477293E+07
 CELL LNTHS[bohr]             =    0.9134436E+02   0.1986055E+03   0.1153731E+03
 AVE. CELL LNTHS[bohr]        =    0.9130736E+02   0.1985251E+03   0.1153263E+03
 *******************************************************************************


 ENERGY| Total FORCE_EVAL ( FIST ) energy (a.u.):         -12689.288385586731238


 *******************************************************************************
 ENSEMBLE TYPE                =                                            NPT_I
 STEP NUMBER                  =                                              189
 TIME [fs]                    =                                       378.000000
 CONSERVED QUANTITY [hartree] =                              -0.126646049955E+05

                                              INSTANTANEOUS             AVERAGES
 CPU TIME [s]                 =                        2.37                 1.53
 ENERGY DRIFT PER ATOM [K]    =          0.753859861511E+00  -0.130878557261E+01
 POTENTIAL ENERGY[hartree]    =         -0.126892883856E+05  -0.126959649173E+05
 KINETIC ENERGY [hartree]     =          0.232152170950E+02   0.301432485404E+02
 TEMPERATURE [K]              =                     174.549              226.638
 PRESSURE [bar]               =         -0.376906493988E+05   0.589518816347E+03
 BAROSTAT TEMP[K]             =          0.841732436372E+04   0.848570571991E+05
 VOLUME[bohr^3]               =          0.209293208220E+07   0.209051761583E+07
 CELL LNTHS[bohr]             =    0.9134279E+02   0.1986021E+03   0.1153711E+03
 AVE. CELL LNTHS[bohr]        =    0.9130755E+02   0.1985255E+03   0.1153266E+03
 *******************************************************************************


 ENERGY| Total FORCE_EVAL ( FIST ) energy (a.u.):         -12692.100175002173273


 *******************************************************************************
 ENSEMBLE TYPE                =                                            NPT_I
 STEP NUMBER                  =                                              190
 TIME [fs]                    =                                       380.000000
 CONSERVED QUANTITY [hartree] =                              -0.126646716352E+05

                                              INSTANTANEOUS             AVERAGES
 CPU TIME [s]                 =                        1.48                 1.53
 ENERGY DRIFT PER ATOM [K]    =          0.232040226808E-02  -0.130188501485E+01
 POTENTIAL ENERGY[hartree]    =         -0.126921001750E+05  -0.126959445766E+05
 KINETIC ENERGY [hartree]     =          0.259217819957E+02   0.301210302954E+02
 TEMPERATURE [K]              =                     194.898              226.471
 PRESSURE [bar]               =         -0.333887981121E+05   0.410685569355E+03
 BAROSTAT TEMP[K]             =          0.328447214270E+05   0.845833080634E+05
 VOLUME[bohr^3]               =          0.209258096396E+07   0.209052847556E+07
 CELL LNTHS[bohr]             =    0.9133768E+02   0.1985910E+03   0.1153646E+03
 AVE. CELL LNTHS[bohr]        =    0.9130771E+02   0.1985258E+03   0.1153268E+03
 *******************************************************************************


 ENERGY| Total FORCE_EVAL ( FIST ) energy (a.u.):         -12696.452563298087625


 *******************************************************************************
 ENSEMBLE TYPE                =                                            NPT_I
 STEP NUMBER                  =                                              191
 TIME [fs]                    =                                       382.000000
 CONSERVED QUANTITY [hartree] =                              -0.126647795931E+05

                                              INSTANTANEOUS             AVERAGES
 CPU TIME [s]                 =                        0.31                 1.52
 ENERGY DRIFT PER ATOM [K]    =         -0.121519254654E+01  -0.130143112758E+01
 POTENTIAL ENERGY[hartree]    =         -0.126964525633E+05  -0.126959472362E+05
 KINETIC ENERGY [hartree]     =          0.301154390872E+02   0.301210010220E+02
 TEMPERATURE [K]              =                     226.429              226.471
 PRESSURE [bar]               =         -0.254033061850E+05   0.275533780065E+03
 BAROSTAT TEMP[K]             =          0.629120691073E+05   0.844698460794E+05
 VOLUME[bohr^3]               =          0.209202532342E+07   0.209053631246E+07
 CELL LNTHS[bohr]             =    0.9132960E+02   0.1985734E+03   0.1153544E+03
 AVE. CELL LNTHS[bohr]        =    0.9130783E+02   0.1985261E+03   0.1153269E+03
 *******************************************************************************


 ENERGY| Total FORCE_EVAL ( FIST ) energy (a.u.):         -12700.696489929827294


 *******************************************************************************
 ENSEMBLE TYPE                =                                            NPT_I
 STEP NUMBER                  =                                              192
 TIME [fs]                    =                                       384.000000
 CONSERVED QUANTITY [hartree] =                              -0.126648910874E+05

                                              INSTANTANEOUS             AVERAGES
 CPU TIME [s]                 =                        0.23                 1.52
 ENERGY DRIFT PER ATOM [K]    =         -0.247258807070E+01  -0.130753090333E+01
 POTENTIAL ENERGY[hartree]    =         -0.127006964899E+05  -0.126959719719E+05
 KINETIC ENERGY [hartree]     =          0.342058935899E+02   0.301422765042E+02
 TEMPERATURE [K]              =                     257.184              226.631
 PRESSURE [bar]               =         -0.142946675702E+05   0.199647314699E+03
 BAROSTAT TEMP[K]             =          0.854743660963E+05   0.844750779545E+05
 VOLUME[bohr^3]               =          0.209132639563E+07   0.209054042748E+07
 CELL LNTHS[bohr]             =    0.9131943E+02   0.1985513E+03   0.1153416E+03
 AVE. CELL LNTHS[bohr]        =    0.9130789E+02   0.1985262E+03   0.1153270E+03
 *******************************************************************************


 ENERGY| Total FORCE_EVAL ( FIST ) energy (a.u.):         -12703.158922885399079


 *******************************************************************************
 ENSEMBLE TYPE                =                                            NPT_I
 STEP NUMBER                  =                                              193
 TIME [fs]                    =                                       386.000000
 CONSERVED QUANTITY [hartree] =                              -0.126649618938E+05

                                              INSTANTANEOUS             AVERAGES
 CPU TIME [s]                 =                        0.18                 1.51
 ENERGY DRIFT PER ATOM [K]    =         -0.327111964225E+01  -0.131770493824E+01
 POTENTIAL ENERGY[hartree]    =         -0.127031589229E+05  -0.126960092100E+05
 KINETIC ENERGY [hartree]     =          0.365825846335E+02   0.301756459763E+02
 TEMPERATURE [K]              =                     275.054              226.882
 PRESSURE [bar]               =         -0.987064101275E+03   0.193498550886E+03
 BAROSTAT TEMP[K]             =          0.899808504728E+05   0.845036052732E+05
 VOLUME[bohr^3]               =          0.209056350593E+07   0.209054054705E+07
 CELL LNTHS[bohr]             =    0.9130832E+02   0.1985272E+03   0.1153276E+03
 AVE. CELL LNTHS[bohr]        =    0.9130789E+02   0.1985262E+03   0.1153270E+03
 *******************************************************************************


 ENERGY| Total FORCE_EVAL ( FIST ) energy (a.u.):         -12702.828438994925818


 *******************************************************************************
 ENSEMBLE TYPE                =                                            NPT_I
 STEP NUMBER                  =                                              194
 TIME [fs]                    =                                       388.000000
 CONSERVED QUANTITY [hartree] =                              -0.126649584037E+05

                                              INSTANTANEOUS             AVERAGES
 CPU TIME [s]                 =                        2.41                 1.52
 ENERGY DRIFT PER ATOM [K]    =         -0.323175910662E+01  -0.132757119684E+01
 POTENTIAL ENERGY[hartree]    =         -0.127028284390E+05  -0.126960443606E+05
 KINETIC ENERGY [hartree]     =          0.362747741675E+02   0.302070847815E+02
 TEMPERATURE [K]              =                     272.740              227.118
 PRESSURE [bar]               =          0.131966471715E+05   0.260525090168E+03
 BAROSTAT TEMP[K]             =          0.734745163164E+05   0.844467542992E+05
 VOLUME[bohr^3]               =          0.208982705565E+07   0.209053686926E+07
 CELL LNTHS[bohr]             =    0.9129760E+02   0.1985038E+03   0.1153140E+03
 AVE. CELL LNTHS[bohr]        =    0.9130783E+02   0.1985261E+03   0.1153269E+03
 *******************************************************************************


 ENERGY| Total FORCE_EVAL ( FIST ) energy (a.u.):         -12699.858409135698821


 *******************************************************************************
 ENSEMBLE TYPE                =                                            NPT_I
 STEP NUMBER                  =                                              195
 TIME [fs]                    =                                       390.000000
 CONSERVED QUANTITY [hartree] =                              -0.126648766548E+05

                                              INSTANTANEOUS             AVERAGES
 CPU TIME [s]                 =                        0.15                 1.51
 ENERGY DRIFT PER ATOM [K]    =         -0.230982220296E+01  -0.133260838149E+01
 POTENTIAL ENERGY[hartree]    =         -0.126998584091E+05  -0.126960639199E+05
 KINETIC ENERGY [hartree]     =          0.334309483368E+02   0.302236174151E+02
 TEMPERATURE [K]              =                     251.358              227.243
 PRESSURE [bar]               =          0.265927386489E+05   0.395562082777E+03
 BAROSTAT TEMP[K]             =          0.429279479210E+05   0.842338373434E+05
 VOLUME[bohr^3]               =          0.208920905352E+07   0.209053005995E+07
 CELL LNTHS[bohr]             =    0.9128860E+02   0.1984843E+03   0.1153026E+03
 AVE. CELL LNTHS[bohr]        =    0.9130774E+02   0.1985259E+03   0.1153268E+03
 *******************************************************************************


 ENERGY| Total FORCE_EVAL ( FIST ) energy (a.u.):         -12695.600486736255334


 *******************************************************************************
 ENSEMBLE TYPE                =                                            NPT_I
 STEP NUMBER                  =                                              196
 TIME [fs]                    =                                       392.000000
 CONSERVED QUANTITY [hartree] =                              -0.126647517336E+05

                                              INSTANTANEOUS             AVERAGES
 CPU TIME [s]                 =                        0.23                 1.50
 ENERGY DRIFT PER ATOM [K]    =         -0.901002945980E+00  -0.133040631294E+01
 POTENTIAL ENERGY[hartree]    =         -0.126956004867E+05  -0.126960615554E+05
 KINETIC ENERGY [hartree]     =          0.293450976352E+02   0.302191351713E+02
 TEMPERATURE [K]              =                     220.637              227.209
 PRESSURE [bar]               =          0.373951865134E+05   0.584335676810E+03
 BAROSTAT TEMP[K]             =          0.130865572462E+05   0.838708410164E+05
 VOLUME[bohr^3]               =          0.208879199044E+07   0.209052119225E+07
 CELL LNTHS[bohr]             =    0.9128252E+02   0.1984711E+03   0.1152950E+03
 AVE. CELL LNTHS[bohr]        =    0.9130761E+02   0.1985256E+03   0.1153267E+03
 *******************************************************************************


 ENERGY| Total FORCE_EVAL ( FIST ) energy (a.u.):         -12692.041232323259464


 *******************************************************************************
 ENSEMBLE TYPE                =                                            NPT_I
 STEP NUMBER                  =                                              197
 TIME [fs]                    =                                       394.000000
 CONSERVED QUANTITY [hartree] =                              -0.126646454864E+05

                                              INSTANTANEOUS             AVERAGES
 CPU TIME [s]                 =                        0.24                 1.50
 ENERGY DRIFT PER ATOM [K]    =          0.297217888416E+00  -0.132214426116E+01
 POTENTIAL ENERGY[hartree]    =         -0.126920412323E+05  -0.126960411477E+05
 KINETIC ENERGY [hartree]     =          0.259152416229E+02   0.301972879959E+02
 TEMPERATURE [K]              =                     194.849              227.045
 PRESSURE [bar]               =          0.439843252789E+05   0.804640192557E+03
 BAROSTAT TEMP[K]             =          0.806656330857E+01   0.834451416537E+05
 VOLUME[bohr^3]               =          0.208863764173E+07   0.209051163108E+07
 CELL LNTHS[bohr]             =    0.9128027E+02   0.1984662E+03   0.1152921E+03
 AVE. CELL LNTHS[bohr]        =    0.9130747E+02   0.1985253E+03   0.1153265E+03
 *******************************************************************************


 ENERGY| Total FORCE_EVAL ( FIST ) energy (a.u.):         -12690.844595359249070


 *******************************************************************************
 ENSEMBLE TYPE                =                                            NPT_I
 STEP NUMBER                  =                                              198
 TIME [fs]                    =                                       396.000000
 CONSERVED QUANTITY [hartree] =                              -0.126646133704E+05

                                              INSTANTANEOUS             AVERAGES
 CPU TIME [s]                 =                        3.96                 1.51
 ENERGY DRIFT PER ATOM [K]    =          0.659410562625E+00  -0.131213640851E+01
 POTENTIAL ENERGY[hartree]    =         -0.126908445954E+05  -0.126960149025E+05
 KINETIC ENERGY [hartree]     =          0.247321997224E+02   0.301696865400E+02
 TEMPERATURE [K]              =                     185.954              226.837
 PRESSURE [bar]               =          0.453010689698E+05   0.102936963083E+04
 BAROSTAT TEMP[K]             =          0.130804644726E+05   0.830897644962E+05
 VOLUME[bohr^3]               =          0.208877780547E+07   0.209050287438E+07
 CELL LNTHS[bohr]             =    0.9128232E+02   0.1984706E+03   0.1152947E+03
 AVE. CELL LNTHS[bohr]        =    0.9130734E+02   0.1985250E+03   0.1153263E+03
 *******************************************************************************


 ENERGY| Total FORCE_EVAL ( FIST ) energy (a.u.):         -12692.505558557630138


 *******************************************************************************
 ENSEMBLE TYPE                =                                            NPT_I
 STEP NUMBER                  =                                              199
 TIME [fs]                    =                                       398.000000
 CONSERVED QUANTITY [hartree] =                              -0.126646705780E+05

                                              INSTANTANEOUS             AVERAGES
 CPU TIME [s]                 =                        4.98                 1.53
 ENERGY DRIFT PER ATOM [K]    =          0.142427301940E-01  -0.130547118671E+01
 POTENTIAL ENERGY[hartree]    =         -0.126925055586E+05  -0.126959972676E+05
 KINETIC ENERGY [hartree]     =          0.262768035274E+02   0.301501243138E+02
 TEMPERATURE [K]              =                     197.568              226.690
 PRESSURE [bar]               =          0.411230482323E+05   0.123084540269E+04
 BAROSTAT TEMP[K]             =          0.497301973195E+05   0.829221284802E+05
 VOLUME[bohr^3]               =          0.208920891266E+07   0.209049637206E+07
 CELL LNTHS[bohr]             =    0.9128860E+02   0.1984843E+03   0.1153026E+03
 AVE. CELL LNTHS[bohr]        =    0.9130725E+02   0.1985248E+03   0.1153262E+03
 *******************************************************************************


 ENERGY| Total FORCE_EVAL ( FIST ) energy (a.u.):         -12696.119577939070950


 *******************************************************************************
 ENSEMBLE TYPE                =                                            NPT_I
 STEP NUMBER                  =                                              200
 TIME [fs]                    =                                       400.000000
 CONSERVED QUANTITY [hartree] =                              -0.126647831983E+05

                                              INSTANTANEOUS             AVERAGES
 CPU TIME [s]                 =                        1.62                 1.53
 ENERGY DRIFT PER ATOM [K]    =         -0.125585133524E+01  -0.130522308745E+01
 POTENTIAL ENERGY[hartree]    =         -0.126961195779E+05  -0.126959978791E+05
 KINETIC ENERGY [hartree]     =          0.296985500369E+02   0.301478664424E+02
 TEMPERATURE [K]              =                     223.295              226.673
 PRESSURE [bar]               =          0.321219051871E+05   0.138530070161E+04
 BAROSTAT TEMP[K]             =          0.960120916274E+05   0.829875782960E+05
 VOLUME[bohr^3]               =          0.208989183700E+07   0.209049334939E+07
 CELL LNTHS[bohr]             =    0.9129854E+02   0.1985059E+03   0.1153152E+03
 AVE. CELL LNTHS[bohr]        =    0.9130720E+02   0.1985247E+03   0.1153261E+03
 *******************************************************************************


 ENERGY| Total FORCE_EVAL ( FIST ) energy (a.u.):         -12699.898320938757024


 *******************************************************************************
 ENSEMBLE TYPE                =                                            NPT_I
 STEP NUMBER                  =                                              201
 TIME [fs]                    =                                       402.000000
 CONSERVED QUANTITY [hartree] =                              -0.126648913435E+05

                                              INSTANTANEOUS             AVERAGES
 CPU TIME [s]                 =                        2.88                 1.53
 ENERGY DRIFT PER ATOM [K]    =         -0.247547642837E+01  -0.131104524338E+01
 POTENTIAL ENERGY[hartree]    =         -0.126998983209E+05  -0.126960172843E+05
 KINETIC ENERGY [hartree]     =          0.332987460248E+02   0.301635424602E+02
 TEMPERATURE [K]              =                     250.364              226.791
 PRESSURE [bar]               =          0.196739963750E+05   0.147628923730E+04
 BAROSTAT TEMP[K]             =          0.133072830125E+06   0.832367586533E+05
 VOLUME[bohr^3]               =          0.209075720429E+07   0.209049466210E+07
 CELL LNTHS[bohr]             =    0.9131114E+02   0.1985333E+03   0.1153311E+03
 AVE. CELL LNTHS[bohr]        =    0.9130722E+02   0.1985248E+03   0.1153262E+03
 *******************************************************************************

