#     Step Nr.          Time[fs]        Kin.[a.u.]          Temp[K]            Pot.[a.u.]        Cons Qty[a.u.]        UsedTime[s]
         0            0.000000        39.900448259       300.000000000    -12704.580765681    -12664.671840924         0.000000000
       315          630.000000        34.327740817       258.100414768    -12701.220241583    -12664.912943420         0.304023497
       306          612.000000        34.669776055       260.672079400    -12701.546993787    -12664.910710289         0.159760160
       235          470.000000        25.367145602       190.728275318    -12691.674120240    -12664.635465939         0.336159174
       307          614.000000        34.748380664       261.263084854    -12701.621883408    -12664.916532304         0.283416848
       213          426.000000        34.639958746       260.447891627    -12701.266824640    -12664.929567213         0.396103410
       308          616.000000        32.653022650       245.508690318    -12699.435209972    -12664.859228451         0.161738278
       212          424.000000        35.273728721       265.213025873    -12701.931497809    -12664.941864312         0.499475795
       214          428.000000        31.925555964       240.039077433    -12698.427414055    -12664.849760864         0.174116236
       215          430.000000        28.397286612       213.511034469    -12694.738365996    -12664.738409866         0.679890940
       216          432.000000        25.751061306       193.614827124    -12691.979028737    -12664.652928250         0.142176144
         1            2.000000        40.649619429       305.632802664    -12705.386302297    -12664.705029671         1.769472529
       217          434.000000        25.268547283       189.986942900    -12691.494792777    -12664.640143543         0.163845617
       309          618.000000        29.321297716       220.458408334    -12695.961877895    -12664.760855496         1.078550144
       213          426.000000        34.639958746       260.447891627    -12701.266824640    -12664.929567213         1.108357697
       236          472.000000        25.687108355       193.133983272    -12691.994464624    -12664.641599842         1.533991698
       316          632.000000        34.447678171       259.002189258    -12701.328952177    -12664.908794318         1.587997189
         2            4.000000        42.456814641       319.220583932    -12707.328189551    -12664.791539011         0.242162736
         2            4.000000        42.456814641       319.220583932    -12707.328189551    -12664.791539011         0.307340803
       310          620.000000        26.277396203       197.572187910    -12692.792182085    -12664.667035867         0.177719882
       218          436.000000        27.140937140       204.064903966    -12693.482491593    -12664.706891419         0.283864489
         3            6.000000        44.077372619       331.405093501    -12709.102642919    -12664.894089117         0.200855177
       317          634.000000        32.434103628       243.862701125    -12699.220267979    -12664.845922286         0.252435746
       311          622.000000        24.946888222       187.568480887    -12691.415490524    -12664.625569736         0.176994929
       237          474.000000        28.301266865       212.789089597    -12694.717026218    -12664.721835097         0.357374283
       214          428.000000        31.925555964       240.039077433    -12698.427414055    -12664.849760864         0.376569811
         3            6.000000        44.077372619       331.405093501    -12709.102642919    -12664.894089117         0.278584257
         4            8.000000        44.067864357       331.333603612    -12709.190741669    -12664.962682375         0.186737763
       219          438.000000        30.370204888       228.344839824    -12696.887571614    -12664.815711629         0.261576250
       318          636.000000        29.139002944       219.087786344    -12695.791057203    -12664.754284541         0.254558401
       238          476.000000        31.996897111       240.575471012    -12698.569875922    -12664.833083635         0.179389563
       220          440.000000        33.307460090       250.429217296    -12699.976080867    -12664.909042620         0.188646995
       312          624.000000        25.955695671       195.153414085    -12692.483599026    -12664.659085538         0.366682368
         4            8.000000        44.067864357       331.333603612    -12709.190741669    -12664.962682375         0.306130669
       215          430.000000        28.397286612       213.511034469    -12694.738365996    -12664.738409866         0.339360638
         5           10.000000        41.521666949       312.189477268    -12706.628753329    -12664.956856519         0.315301510
         5           10.000000        41.521666949       312.189477268    -12706.628753329    -12664.956856519         0.402571851
       239          478.000000        35.069531557       263.677726097    -12701.769737805    -12664.919838118         0.588780161
       216          432.000000        25.751061306       193.614827124    -12691.979028737    -12664.652928250         0.452509320
       319          638.000000        25.878268365       194.571260435    -12692.411717026    -12664.670134603         0.674809648
       221          442.000000        34.492781145       259.341305554    -12701.221242829    -12664.942747558         0.554837556
       313          626.000000        28.802888529       216.560638684    -12695.466752527    -12664.750249312         0.583342576
         6           12.000000        36.639465828       275.481610561    -12701.614504324    -12664.870909297         0.201794487
         6           12.000000        36.639465828       275.481610561    -12701.614504324    -12664.870909297         0.575215179
       320          640.000000        23.889781284       179.620397715    -12690.363107874    -12664.622336517         0.205314652
       240          480.000000        36.143528593       271.752801066    -12702.883914704    -12664.943836522         0.281364293
       217          434.000000        25.268547283       189.986942900    -12691.494792777    -12664.640143543         0.302655760
       222          444.000000        33.321193470       250.532474632    -12699.999038273    -12664.905855647         0.271022413
         7           14.000000        30.785090487       231.464245374    -12695.574868015    -12664.742765609         0.187929970
       314          628.000000        32.112750970       241.446542870    -12698.921181682    -12664.851492053         0.256217713
         7           14.000000        30.785090487       231.464245374    -12695.574868015    -12664.742765609         0.279494958
       315          630.000000        34.327740817       258.100414768    -12701.220241583    -12664.912943420         0.181778614
       223          446.000000        30.236849537       227.342179272    -12696.782804150    -12664.818749312         0.266026364
         8           16.000000        25.919815261       194.883639600    -12690.572119943    -12664.634616175         0.204466355
       218          436.000000        27.140937140       204.064903966    -12693.482491593    -12664.706891419         0.330958092
         8           16.000000        25.919815261       194.883639600    -12690.572119943    -12664.634616175         0.320570127
       241          482.000000        34.758647993       261.340281950    -12701.440015528    -12664.898950556         0.459617138
       316          632.000000        34.447678171       259.002189258    -12701.328952177    -12664.908794318         0.172361823
       321          642.000000        23.888066910       179.607507829    -12690.378818870    -12664.625125225         0.546231434
       219          438.000000        30.370204888       228.344839824    -12696.887571614    -12664.815711630         0.212294392
       322          644.000000        25.838207512       194.270054392    -12692.415487506    -12664.676031363         0.160933634
       224          448.000000        26.458392045       198.933043610    -12692.848424847    -12664.718054012         0.365246298
         9           18.000000        23.691594669       178.130289528    -12688.341012321    -12664.598227917         0.306005839
         9           18.000000        23.691594669       178.130289528    -12688.341012321    -12664.598227917         0.369820568
       317          634.000000        32.434103628       243.862701125    -12699.220267979    -12664.845922286         0.289694648
       242          484.000000        31.490678745       236.769360646    -12698.044426921    -12664.807620256         0.316840564
       220          440.000000        33.307460090       250.429217296    -12699.976080867    -12664.909042620         0.205396373
       225          450.000000        23.442421461       176.256827808    -12689.712570231    -12664.640298091         0.192095148
       323          646.000000        28.989854744       217.966383909    -12695.690362981    -12664.757151539         0.324039435
       318          636.000000        29.139002944       219.087786344    -12695.791057203    -12664.754284541         0.265661934
       243          486.000000        27.639041355       207.810006364    -12694.050790243    -12664.706563400         0.267064845
        10           20.000000        24.667703187       185.469368870    -12689.478124791    -12664.649596439         0.326169034
       226          452.000000        22.329238838       167.887127681    -12688.558685659    -12664.610928301         0.160253945
       221          442.000000        34.492781145       259.341305554    -12701.221242829    -12664.942747558         0.459728029
       319          638.000000        25.878268365       194.571260435    -12692.411717026    -12664.670134603         0.346184819
        11           22.000000        28.084313004       211.157875889    -12693.178695774    -12664.764899631         0.407437812
       222          444.000000        33.321193470       250.532474632    -12699.999038273    -12664.905855647         0.202930321
       320          640.000000        23.889781284       179.620397715    -12690.363107874    -12664.622336517         0.151498787
       324          648.000000        32.152382696       241.744522423    -12698.966189179    -12664.839475493         0.534033292
       227          454.000000        23.548274258       177.052704562    -12689.831276491    -12664.639078796         0.499324996
       244          488.000000        24.682044590       185.577197753    -12690.992262033    -12664.631685368         0.574226819
        11           22.000000        28.084313004       211.157875889    -12693.178695774    -12664.764899631         0.578754985
        12           24.000000        32.189980902       242.027212528    -12697.598883016    -12664.893747592         0.210334461
       223          446.000000        30.236849537       227.342179272    -12696.782804150    -12664.818749312         0.274344277
       228          456.000000        26.675246331       200.563508643    -12693.089812599    -12664.716110650         0.183487238
       325          650.000000        34.137995908       256.673777346    -12701.009588385    -12664.891137526         0.264036765
        13           26.000000        34.995511128       263.121187770    -12700.644769266    -12664.981373093         0.207675054
       245          490.000000        23.728184613       178.405398797    -12690.014846048    -12664.607619342         0.357410618
       326          652.000000        34.238397822       257.428670474    -12701.086096332    -12664.889501037         0.169909404
                                                                                                                                          229          458.000000        30.568424198       229.835193832    -12697.148856510    -12664.816926710         0.278497209
       321          642.000000        23.888066910       179.607507829    -12690.378818870    -12664.625125225         0.533849681
       224          448.000000        26.458392045       198.933043610    -12692.848424847    -12664.718054012         0.343899796
       327          654.000000        32.549630006       244.731310752    -12699.299984817    -12664.833412736         0.238129976
       225          450.000000        23.442421461       176.256827808    -12689.712570231    -12664.640298091         0.240501137
       322          644.000000        25.838207512       194.270054392    -12692.415487506    -12664.676031363         0.293047899
       230          460.000000        33.758885859       253.823357872    -12700.479816978    -12664.905111285         0.420581301
       246          492.000000        25.132982518       188.967670402    -12691.484139684    -12664.642357245         0.493718036
        15           30.000000        32.228560906       242.317284488    -12697.897088803    -12664.922381306         0.392947107
        13           26.000000        34.995511128       263.121187770    -12700.644769266    -12664.981373093         0.499167138
       328          656.000000        29.969386439       225.331201133    -12696.593545223    -12664.748052317         0.278493199
       226          452.000000        22.329238838       167.887127681    -12688.558685659    -12664.610928301         0.185298031
       323          646.000000        28.989854744       217.966383909    -12695.690362981    -12664.757151539         0.252663632
       231          462.000000        35.004353664       263.187672260    -12701.784265841    -12664.943773176         0.187357817
       324          648.000000        32.152382696       241.744522423    -12698.966189179    -12664.839475493         0.168042018
       227          454.000000        23.548274258       177.052704562    -12689.831276491    -12664.639078797         0.279924856
       329          658.000000        27.809014140       209.087982869    -12694.341580306    -12664.675644832         0.287379129
       232          464.000000        33.831132262       254.366557807    -12700.560148085    -12664.911689437         0.188002584
       247          494.000000        28.374523219       213.339883067    -12694.858258897    -12664.725468251         0.393560942
        16           32.000000        27.319884111       205.410354798    -12692.792589265    -12664.802090147         0.394278340
       325          650.000000        34.137995908       256.673777346    -12701.009588385    -12664.891137526         0.169234622
       248          496.000000        32.218719676       242.243291109    -12698.857566839    -12664.829369036         0.180472355
       233          466.000000        30.821555034       231.738411814    -12697.408440096    -12664.818538764         0.260347615
       326          652.000000        34.238397822       257.428670474    -12701.086096332    -12664.889501037         0.171260935
       330          660.000000        27.166343765       204.255929072    -12693.692366179    -12664.653791531         0.316143911
        17           34.000000        22.089915861       166.087727017    -12687.319076195    -12664.676078938         0.262518769
       228          456.000000        26.675246331       200.563508643    -12693.089812599    -12664.716110650         0.351976116
        15           30.000000        32.228560906       242.317284488    -12697.897088803    -12664.922381306         0.326139134
       249          498.000000        35.148295870       264.269932328    -12701.905960420    -12664.915104631         0.198908487
        16           32.000000        27.319884111       205.410354798    -12692.792589265    -12664.802090147         0.172379216
       250          500.000000        35.953864266       270.326769510    -12702.742420339    -12664.944729201         0.157404004
       331          662.000000        28.374378665       213.338796201    -12694.987842019    -12664.693905023         0.345888599
       234          468.000000        27.437308635       206.293236033    -12693.855915495    -12664.707343854         0.388033324
        17           34.000000        22.089915861       166.087727017    -12687.319076195    -12664.676078938         0.160517083
       229          458.000000        30.568424198       229.835193832    -12697.148856510    -12664.816926710         0.362976959
        18           36.000000        18.376993446       138.171330759    -12683.393028617    -12664.587356986         0.378255283
       251          502.000000        34.288142848       257.802689024    -12701.000044116    -12664.899422109         0.188681050
       230          460.000000        33.758885859       253.823357872    -12700.479816978    -12664.905111285         0.173661552
       252          504.000000        30.914332804       232.435981194    -12697.472096998    -12664.795319500         0.165938215
        19           38.000000        17.485237519       131.466474303    -12682.375177352    -12664.564174321         0.336931729
       231          462.000000        35.004353664       263.187672260    -12701.784265841    -12664.943773176         0.175031352
       235          470.000000        25.367145602       190.728275318    -12691.674120240    -12664.635465939         0.386494261
       253          506.000000        27.435656493       206.280814056    -12693.835898827    -12664.682998473         0.166571504
       328          656.000000        29.969386439       225.331201133    -12696.593545223    -12664.748052317         0.427943731
       332          664.000000        30.832566124       231.821201033    -12697.588604203    -12664.774493300         0.503823817
        18           36.000000        18.376993446       138.171330759    -12683.393028617    -12664.587356986         0.528143008
        20           40.000000        19.746405047       148.467542915    -12684.619533159    -12664.614247644         0.219089982
       333          666.000000        33.317153646       250.502100355    -12700.204853616    -12664.853817157         0.173120299
       236          472.000000        25.687108355       193.133983272    -12691.994464624    -12664.641599842         0.361960142
       329          658.000000        27.809014140       209.087982869    -12694.341580306    -12664.675644832         0.303678223
       232          464.000000        33.831132262       254.366557807    -12700.560148085    -12664.911689437         0.396896374
       254          508.000000        25.540112648       192.028764809    -12691.861854948    -12664.622514793         0.347787096
        19           38.000000        17.485237519       131.466474303    -12682.375177352    -12664.564174321         0.284702427
       334          668.000000        34.592759297       260.093012537    -12701.542321617    -12664.893025933         0.194926701
       233          466.000000        30.821555034       231.738411814    -12697.408440096    -12664.818538764         0.253721390
        21           42.000000        24.400531687       183.460583168    -12689.351106405    -12664.723230348         0.471333107
       335          670.000000        33.993464740       255.587089044    -12700.911051861    -12664.875212220         0.257804452
       237          474.000000        28.301266865       212.789089597    -12694.717026218    -12664.721835097         0.408075156
       330          660.000000        27.166343765       204.255929072    -12693.692366179    -12664.653791531         0.394544006
        20           40.000000        19.746405047       148.467542915    -12684.619533159    -12664.614247644         0.344868623
       255          510.000000        26.129560607       196.460654558    -12692.494365118    -12664.646414221         0.394217014
       234          468.000000        27.437308635       206.293236033    -12693.855915495    -12664.707343854         0.193706549
       336          672.000000        31.692933445       238.290055586    -12698.502608510    -12664.810349154         0.201420272
        22           44.000000        29.824132321       224.239077170    -12694.899564965    -12664.856273445         0.286712073
       235          470.000000        25.367145602       190.728275318    -12691.674120240    -12664.635465939         0.193286610
       331          662.000000        28.374378665       213.338796201    -12694.987842019    -12664.693905023         0.286422689
       256          512.000000        28.850222645       216.916530296    -12695.356309267    -12664.738958595         0.259607473
       238          476.000000        31.996897111       240.575471012    -12698.569875922    -12664.833083635         0.300738107
       337          674.000000        28.579987886       214.884712831    -12695.252450226    -12664.726475864         0.174819819
       236          472.000000        25.687108355       193.133983272    -12691.994464624    -12664.641599842         0.199017953
       338          676.000000        25.855223421       194.397992122    -12692.414351636    -12664.655525837         0.179549087
        21           42.000000        24.400531687       183.460583168    -12689.351106406    -12664.723230348         0.550971067
       257          514.000000        32.311842320       242.943453495    -12698.984511410    -12664.848529964         0.297515457
       239          478.000000        35.069531557       263.677726097    -12701.769737805    -12664.919838118         0.310600023
       332          664.000000        30.832566124       231.821201033    -12697.588604203    -12664.774493300         0.334308026
        24           48.000000        35.612020942       267.756547833    -12700.832565997    -12665.003082951         0.205326879
       237          474.000000        28.301266865       212.789089597    -12694.717026218    -12664.721835097         0.259922853
       339          678.000000        24.553228254       184.608664757    -12691.063092657    -12664.621807662         0.250316606
        22           44.000000        29.824132321       224.239077170    -12694.899564965    -12664.856273445         0.211373394
        25           50.000000        33.993331923       255.586090433    -12699.161470764    -12664.948921796         0.209198663
       333          666.000000        33.317153646       250.502100355    -12700.204853616    -12664.853817157         0.252267035
       240          480.000000        36.143528593       271.752801066    -12702.883914704    -12664.943836522         0.291813060
                                                                                                                                           23           46.000000        34.072532217       256.181574672    -12699.256454282    -12664.964990158         0.180799802
       238          476.000000        31.996897111       240.575471012    -12698.569875922    -12664.833083635         0.287882876
       340          680.000000        25.169052181       189.238867828    -12691.709480829    -12664.635891247         0.252641703
       239          478.000000        35.069531557       263.677726097    -12701.769737805    -12664.919838118         0.262014834
        26           52.000000        30.137231215       226.593177749    -12695.203919697    -12664.823419873         0.407076660
       259          518.000000        35.233959792       264.914014728    -12702.035300558    -12664.927286452         0.412256810
       240          480.000000        36.143528593       271.752801066    -12702.883914704    -12664.943836522         0.189169146
       260          520.000000        33.318994203       250.515938970    -12700.039533997    -12664.870984773         0.197132247
        27           54.000000        25.993828950       195.440127253    -12690.995833659    -12664.686919883         0.278671083
       334          668.000000        34.592759297       260.093012537    -12701.542321617    -12664.893025933         0.693138715
        24           48.000000        35.612020942       267.756547833    -12700.832565997    -12665.003082951         0.682983868
        28           56.000000        23.643742473       177.770502627    -12688.704914895    -12664.609771204         0.187752493
        25           50.000000        33.993331923       255.586090433    -12699.161470764    -12664.948921796         0.174935014
       241          482.000000        34.758647993       261.340281950    -12701.440015528    -12664.898950556         0.935548231
       335          670.000000        33.993464740       255.587089044    -12700.911051861    -12664.875212220         0.273551641
       241          482.000000        34.758647993       261.340281950    -12701.440015528    -12664.898950556         0.449906081
        29           58.000000        24.270347543       182.481766011    -12689.548740519    -12664.632503625         0.199074949
       336          672.000000        31.692933445       238.290055586    -12698.502608510    -12664.810349154         0.181025308
       261          522.000000        29.835981939       224.328171049    -12696.418571315    -12664.778612275         0.547126360
        26           52.000000        30.137231215       226.593177749    -12695.203919697    -12664.823419874         0.317569674
       242          484.000000        31.490678745       236.769360646    -12698.044426921    -12664.807620256         0.317729989
       337          674.000000        28.579987886       214.884712831    -12695.252450226    -12664.726475864         0.209692395
       242          484.000000        31.490678745       236.769360646    -12698.044426921    -12664.807620256         0.330356467
        30           60.000000        27.567566747       207.272609333    -12693.174847190    -12664.742282291         0.339570565
       262          524.000000        26.110621542       196.318257173    -12692.552850647    -12664.685003051         0.278284779
        27           54.000000        25.993828950       195.440127253    -12690.995833659    -12664.686919883         0.263595641
        31           62.000000        31.917754237       239.980418493    -12697.857442406    -12664.881298561         0.405616139
       243          486.000000        27.639041355       207.810006364    -12694.050790243    -12664.706563400         0.622002914
       243          486.000000        27.639041355       207.810006364    -12694.050790243    -12664.706563400         0.587873789
       338          676.000000        25.855223421       194.397992122    -12692.414351636    -12664.655525837         0.605145501
        32           64.000000        35.225725620       264.852104359    -12701.385502755    -12664.980452281         0.166369617
       263          526.000000        23.520659577       176.845077713    -12689.870373203    -12664.621147596         0.571277518
        28           56.000000        23.643742473       177.770502627    -12688.704914895    -12664.609771204         0.540373586
       244          488.000000        24.682044590       185.577197753    -12690.992262033    -12664.631685368         0.173927769
        33           66.000000        35.933082174       270.170514935    -12702.132876362    -12664.995944756         0.214642789
       339          678.000000        24.553228254       184.608664757    -12691.063092657    -12664.621807662         0.285075037
       244          488.000000        24.682044590       185.577197753    -12690.992262033    -12664.631685368         0.312008010
        34           68.000000        33.686033819       253.275604328    -12699.751871295    -12664.927026838         0.194794878
        29           58.000000        24.270347543       182.481766011    -12689.548740519    -12664.632503625         0.357951945
       245          490.000000        23.728184613       178.405398797    -12690.014846048    -12664.607619342         0.198622145
       340          680.000000        25.169052181       189.238867828    -12691.709480829    -12664.635891247         0.319379108
       246          492.000000        25.132982518       188.967670402    -12691.484139684    -12664.642357245         0.339553985
       246          492.000000        25.132982518       188.967670402    -12691.484139684    -12664.642357245         0.190431038
        35           70.000000        29.385727426       220.942836801    -12695.210557108    -12664.808576565         0.379693038
       247          494.000000        28.374523219       213.339883067    -12694.858258897    -12664.725468251         0.171399029
       266          532.000000        28.298902396       212.771311837    -12694.839985688    -12664.731340575         0.297319218
        30           60.000000        27.567566747       207.272609333    -12693.174847190    -12664.742282291         0.509962407
        36           72.000000        24.704703796       185.747565814    -12690.273194828    -12664.689268651         0.174866735
       341          682.000000        27.492029297       206.704664963    -12694.131092709    -12664.692938001         0.425744850
       248          496.000000        32.218719676       242.243291109    -12698.857566839    -12664.829369036         0.206567074
        37           74.000000        21.372637494       160.694717176    -12686.750062937    -12664.610882186         0.183805921
       248          496.000000        32.218719676       242.243291109    -12698.857566839    -12664.829369036         0.299194436
       267          534.000000        32.234624286       242.362873297    -12698.925661227    -12664.832699015         0.302094117
        31           62.000000        31.917754237       239.980418493    -12697.857442406    -12664.881298561         0.271214149
       249          498.000000        35.148295870       264.269932328    -12701.905960420    -12664.915104631         0.176655147