#     Step Nr.          Time[fs]        Kin.[a.u.]          Temp[K]            Pot.[a.u.]        Cons Qty[a.u.]        UsedTime[s]
         0            0.000000         0.272187779       300.000000000     -1101.034512925     -1100.762325146         0.000000000
         1            0.500000         0.273714878       301.683139066     -1101.039274243     -1100.765559364         9.098045792
         1            0.500000         0.273714878       301.683139066     -1101.039274243     -1100.765559364         9.230211096
         2            1.000000         0.286764726       316.066423837     -1101.052529161     -1100.765764434         1.006846448
         2            1.000000         0.286764726       316.066423837     -1101.052529161     -1100.765764434         1.007282973
         3            1.500000         0.307401171       338.811506676     -1101.073651823     -1100.766250652         1.010681648
         3            1.500000         0.307401171       338.811506676     -1101.073651823     -1100.766250652         1.028331876
         4            2.000000         0.327777225       361.269590523     -1101.094597649     -1100.766820425         0.914034628
         4            2.000000         0.327777225       361.269590523     -1101.094597649     -1100.766820425         0.923092137
         5            2.500000         0.338777485       373.393861000     -1101.105940928     -1100.767163442         0.889528746
         5            2.500000         0.338777485       373.393861000     -1101.105940928     -1100.767163442         0.905916223
         6            3.000000         0.334806752       369.017397414     -1101.101835631     -1100.767028879         0.782690022
         6            3.000000         0.334806752       369.017397414     -1101.101835631     -1100.767028879         0.798218663
         7            3.500000         0.316971661       349.359912000     -1101.083456749     -1100.766485088         0.684415934
         7            3.500000         0.316971661       349.359912000     -1101.083456749     -1100.766485088         0.690608852
         8            4.000000         0.292296757       322.163718851     -1101.058097632     -1100.765800875         0.681983116
         8            4.000000         0.292296757       322.163718851     -1101.058097632     -1100.765800875         0.692766678
         9            4.500000         0.270146717       297.750381598     -1101.035409155     -1100.765262438         0.680893540
         9            4.500000         0.270146717       297.750381598     -1101.035409155     -1100.765262438         0.688129378
        10            5.000000         0.258331639       284.728036584     -1101.023361434     -1100.765029794         0.784123025
        10            5.000000         0.258331639       284.728036584     -1101.023361434     -1100.765029794         0.786201435
